----- GAMESS execution script 'rungms' -----
This job is running on host chemcompute-node-0.novalocal
under operating system Linux at Sat Nov 13 20:33:59 UTC 2021
SLURM has assigned the following compute nodes to this run:
chemcompute-node-0
Available scratch disk space (Kbyte units) at beginning of the job is
Filesystem     1K-blocks     Used Available Use% Mounted on
/dev/sda1       62903276 16976032  45927244  27% /
GAMESS temporary binary files will be written to /scratch/306156
GAMESS supplementary output files will be written to /data/slurm/342058
Copying input file 342058.inp to your run's scratch directory...
The generated host list is
chemcompute-node-0.novalocal

 Distributed Data Interface kickoff program.
 Initiating 1 compute processes on 1 nodes to run the following command:
 /data/gamess-2019R1-ddi/gamess.00.x 342058 

          ******************************************************
          *         GAMESS VERSION = 30 JUN 2019 (R1)          *
          *             FROM IOWA STATE UNIVERSITY             *
          * M.W.SCHMIDT, K.K.BALDRIDGE, J.A.BOATZ, S.T.ELBERT, *
          *   M.S.GORDON, J.H.JENSEN, S.KOSEKI, N.MATSUNAGA,   *
          *          K.A.NGUYEN, S.J.SU, T.L.WINDUS,           *
          *       TOGETHER WITH M.DUPUIS, J.A.MONTGOMERY       *
          *         J.COMPUT.CHEM.  14, 1347-1363(1993)        *
          **************** 64 BIT LINUX VERSION ****************

  SINCE 1993, STUDENTS AND POSTDOCS WORKING AT IOWA STATE UNIVERSITY
  AND ALSO IN THEIR VARIOUS JOBS AFTER LEAVING ISU HAVE MADE IMPORTANT
  CONTRIBUTIONS TO THE CODE:
     IVANA ADAMOVIC, CHRISTINE AIKENS, YURI ALEXEEV, POOJA ARORA,
     ANDREY ASADCHEV, ROB BELL, PRADIPTA BANDYOPADHYAY, JONATHAN BENTZ,
     COLLEEN BERTONI, BRETT BODE, KURT BRORSEN, CALEB CARLIN, GALINA CHABAN,
     WEI CHEN, CHEOL HO CHOI, PAUL DAY, ALBERT DEFUSCO, NUWAN DESILVA,
     TIM DUDLEY, DMITRI FEDOROV, ALEX FINDLATER, GRAHAM FLETCHER, 
     MARK FREITAG, KURT GLAESEMANN, ANASTASIA GUNINA,
     DAN KEMP, GRANT MERRILL, NORIYUKI MINEZAWA, JONATHAN MULLIN,
     TAKESHI NAGATA, SEAN NEDD, HEATHER NETZLOFF, BOSILJKA NJEGIC, RYAN OLSON,
     MIKE PAK, BUU PHAM,
     SPENCER PRUITT, LUKE ROSKOP, JIM SHOEMAKER, LYUDMILA SLIPCHENKO,
     TONY SMITH, SAROM SOK LEANG, JIE SONG, TETSUYA TAKETSUGU, SIMON WEBB,
     PENG XU, SOOHAENG YOO, FEDERICO ZAHARIEV

  ADDITIONAL CODE HAS BEEN PROVIDED BY COLLABORATORS IN OTHER GROUPS:
     IOWA STATE UNIVERSITY:
          JOE IVANIC, AARON WEST, LAIMUTIS BYTAUTAS, KLAUS RUEDENBERG
     UNIVERSITY OF TOKYO: KIMIHIKO HIRAO, TAKAHITO NAKAJIMA,
          TAKAO TSUNEDA, MUNEAKI KAMIYA, SUSUMU YANAGISAWA,
          KIYOSHI YAGI, MAHITO CHIBA, SEIKEN TOKURA, NAOAKI KAWAKAMI
     UNIVERSITY OF AARHUS: FRANK JENSEN
     UNIVERSITY OF IOWA: VISVALDAS KAIRYS, HUI LI
     NATIONAL INST. OF STANDARDS AND TECHNOLOGY: WALT STEVENS, DAVID GARMER
     UNIVERSITY OF PISA: BENEDETTA MENNUCCI, JACOPO TOMASI
     UNIVERSITY OF MEMPHIS: HENRY KURTZ, PRAKASHAN KORAMBATH
     UNIVERSITY OF ALBERTA: TOBY ZENG, MARIUSZ KLOBUKOWSKI
     UNIVERSITY OF NEW ENGLAND: MARK SPACKMAN
     MIE UNIVERSITY: HIROAKI UMEDA
     NAT. INST. OF ADVANCED INDUSTRIAL SCIENCE AND TECHNOLOGY: KAZUO KITAURA
     MICHIGAN STATE UNIVERSITY:
          KAROL KOWALSKI, MARTA WLOCH, JEFFREY GOUR, JESSE LUTZ,
          WEI LI, JUN SHEN, J. EMILIANO DEUSTUA, PIOTR PIECUCH
     UNIVERSITY OF MINNESOTA:
          YINAN SHU
     UNIVERSITY OF SILESIA: MONIKA MUSIAL, STANISLAW KUCHARSKI
     FACULTES UNIVERSITAIRES NOTRE-DAME DE LA PAIX:
          OLIVIER QUINET, BENOIT CHAMPAGNE
     UNIVERSITY OF CALIFORNIA - SANTA BARBARA: BERNARD KIRTMAN
     INSTITUTE FOR MOLECULAR SCIENCE:
          KAZUYA ISHIMURA, MICHIO KATOUDA, AND SHIGERU NAGASE
     UNIVERSITY OF NOTRE DAME: ANNA POMOGAEVA, DAN CHIPMAN
     KYUSHU UNIVERSITY:
          HARUYUKI NAKANO,
          FENG LONG GU, JACEK KORCHOWIEC, MARCIN MAKOWSKI, AND YURIKO AOKI,
          HIROTOSHI MORI AND EISAKU MIYOSHI
     PENNSYLVANIA STATE UNIVERSITY:
          TZVETELIN IORDANOV, CHET SWALINA, JONATHAN SKONE,
          SHARON HAMMES-SCHIFFER
     WASEDA UNIVERSITY:
          MASATO KOBAYASHI, TOMOKO AKAMA, TSUGUKI TOUMA,
          TAKESHI YOSHIKAWA, YASUHIRO IKABATA, JUNJI SEINO,
          YUYA NAKAJIMA, HIROMI NAKAI
     NANJING UNIVERSITY: SHUHUA LI
     UNIVERSITY OF NEBRASKA:
          PEIFENG SU, DEJUN SI, NANDUN THELLAMUREGE, YALI WANG, HUI LI
     UNIVERSITY OF ZURICH: ROBERTO PEVERATI, KIM BALDRIDGE
     N. COPERNICUS UNIVERSITY AND JACKSON STATE UNIVERSITY:
          MARIA BARYSZ
     UNIVERSITY OF COPENHAGEN: Jimmy Kromann, CASPER STEINMANN
     TOKYO INSTITUTE OF TECHNOLOGY: HIROYA NAKATA
     NAGOYA UNIVERSITY: YOSHIO NISHIMOTO, STEPHAN IRLE
     MOSCOW STATE UNIVERSITY: VLADIMIR MIRONOV
     A.N.NESMEYANOV INSTITUTE OF ORGANOELEMENT COMPOUNDS OF RUSSIAN ACADEMY OF SCIENCES:
          IGOR S. GERASIMOV

 EXECUTION OF GAMESS BEGUN Sat Nov 13 20:34:00 2021

            ECHO OF THE FIRST FEW INPUT CARDS -
 INPUT CARD>!File created by the GAMESS Input Deck Generator Plugin for Avogadro            
 INPUT CARD> $BASIS GBASIS=STO NGAUSS=3 $END                                                
 INPUT CARD> $CONTRL SCFTYP=RHF RUNTYP=IRC NZVAR=1 mult=1  ICHARG=0 $END                    
 INPUT CARD> $STATPT hssend=.t. OPTTOL=0.0005 NSTEP=50 $END                                 
 INPUT CARD> $STATPT HESS=calc ihrep=5 $END                                                 
 INPUT CARD> $FORCE nvib=2 $END                                                             
 INPUT CARD> $ZMAT DLC=.t. auto=.t. nonvdw(1)=3,10,8,11,3,2,2,11,8,9,9,10 $END              
 INPUT CARD>!$ZMAT IFZMAT(1)=1,3,10,1,8,11 fvalue(1)=2.00,2.00 $END                         
 INPUT CARD> $irc npoint=50 saddle=.t. tsengy=.t. forwrd=.f. opttol=0.0005 stride=0.2 $end  
 INPUT CARD>                                                                                
 INPUT CARD> $DATA                                                                          
 INPUT CARD>Title                                                                           
 INPUT CARD>C1                                                                              
 INPUT CARD>C     6.0     0.92516243     0.74934387    -0.66354531                          
 INPUT CARD>C     6.0    -1.44769776     0.34084031    -0.12060916                          
 INPUT CARD>C     6.0    -0.53512591     1.02328682    -0.95747197                          
 INPUT CARD>C     6.0     0.30392331    -1.36506653     0.44332066                          
 INPUT CARD>O     8.0     0.62328893    -2.39187121     1.02551591                          
 INPUT CARD>C     6.0     1.30794692    -0.33540213    -0.02407508                          
 INPUT CARD>H     1.0     2.34644890    -0.53200001     0.20833412                          
 INPUT CARD>C     6.0    -1.42629027    -1.81894600    -1.51508868                          
 INPUT CARD>C     6.0    -0.59531027    -1.12490213    -2.42251801                          
 INPUT CARD>C     6.0    -0.81698650     0.25581667    -2.61348557                          
 INPUT CARD>C     6.0    -1.16530097    -1.01980543     0.12287255                          
 INPUT CARD>H     1.0    -1.86051452    -1.56244230     0.75873417                          
 INPUT CARD>H     1.0     1.64386702     1.48641622    -1.00452352                          
 INPUT CARD>H     1.0    -2.46190333     0.70390517    -0.02296428                          
 INPUT CARD>H     1.0    -0.74381995     2.07174563    -1.15373063                          
 INPUT CARD>H     1.0    -2.49651241    -1.66102529    -1.60598624                          
 INPUT CARD>H     1.0    -1.19382763    -2.86525416    -1.33886337                          
 INPUT CARD>H     1.0     0.39605027    -1.51483440    -2.60819983                          
 INPUT CARD>H     1.0    -1.84079278     0.57641411    -2.77786469                          
 INPUT CARD>H     1.0    -0.12805474     0.77586919    -3.27243614                          
 INPUT CARD> $END                                                                           
 INPUT CARD>                                                                                
 INPUT CARD> $HESS                                                                          
 INPUT CARD>ENERGY IS     -416.1191946443 E(NUC) IS      517.4269081560                     
 INPUT CARD> 1  1 7.96965288E-01 2.76976357E-03 5.96164411E-02-3.88657752E-02-7.63946799E-03
 INPUT CARD> 1  2-2.87807438E-03-2.99660258E-01 4.49766829E-02-2.10585130E-02 3.68001539E-02
 INPUT CARD> 1  3-1.11806850E-02 7.94233308E-03-8.88302728E-03-1.15615474E-02 4.64392523E-03
 INPUT CARD> 1  4-2.19055903E-01 1.25759918E-01-8.90201892E-02-1.39425055E-03 3.64762266E-02
 INPUT CARD> 1  5-1.95455811E-02-1.73614377E-03 2.63267917E-03 9.92537183E-04 1.26749010E-03
 INPUT CARD> 1  6 5.49868899E-03-3.63248328E-03-8.18899447E-03-1.30347422E-02-2.12049618E-02
 INPUT CARD> 1  7 4.79825532E-04 5.24081419E-03 5.25542176E-03-8.79581059E-04 9.74120789E-04
 INPUT CARD> 1  8-6.31412385E-04-2.51641138E-01-1.76149302E-01 7.79309344E-02-1.44198922E-03
 INPUT CARD> 1  9-8.63090532E-04 2.16228744E-04-4.09299978E-03-5.52943736E-03-3.16413409E-03
 INPUT CARD> 1 10-4.89614923E-04-4.68619681E-05-1.52073565E-04 5.71107353E-04 6.77323257E-05
 INPUT CARD> 1 11 1.27727618E-03-3.40848558E-04 1.11145759E-04 3.01425348E-04-5.07846659E-05
 INPUT CARD> 1 12 9.36411383E-04 1.98867734E-03 6.37442900E-04 5.60950783E-04 1.12222244E-03
 INPUT CARD> 2  1 2.76976357E-03 9.64278001E-01-4.25587986E-01-1.03592179E-02 1.95112716E-02
    1000000 WORDS OF MEMORY AVAILABLE

     BASIS OPTIONS
     -------------
     GBASIS=STO          IGAUSS=       3      POLAR=NONE    
     NDFUNC=       0     NFFUNC=       0     DIFFSP=       F
     NPFUNC=       0      DIFFS=       F     BASNAM=        


     RUN TITLE
     ---------
 Title                                                                           

 THE POINT GROUP OF THE MOLECULE IS C1      
 THE ORDER OF THE PRINCIPAL AXIS IS     0

 ATOM      ATOMIC                      COORDINATES (BOHR)
           CHARGE         X                   Y                   Z
 C           6.0     1.7483034868        1.4160545849       -1.2539188163
 C           6.0    -2.7357520794        0.6440947915       -0.2279182640
 C           6.0    -1.0112413388        1.9337316966       -1.8093596642
 C           6.0     0.5743317772       -2.5796016967        0.8377545721
 O           8.0     1.1778452889       -4.5199811848        1.9379440659
 C           6.0     2.4716612853       -0.6338181214       -0.0454953043
 H           1.0     4.4341454652       -1.0053342444        0.3936944007
 C           6.0    -2.6952977893       -3.4373095265       -2.8631024523
 C           6.0    -1.1249732880       -2.1257567887       -4.5778952392
 C           6.0    -1.5438806207        0.4834234094       -4.9387716002
 C           6.0    -2.2020995265       -1.9271528235        0.2321954509
 H           1.0    -3.5158626390       -2.9525878186        1.4337996788
 H           1.0     3.1064582281        2.8089193595       -1.8982742010
 H           1.0    -4.6523227020        1.3301878926       -0.0433961967
 H           1.0    -1.4056158897        3.9150315570       -2.1802347543
 H           1.0    -4.7177243798       -3.1388826568       -3.0348739337
 H           1.0    -2.2560070973       -5.4145452476       -2.5300849043
 H           1.0     0.7484264877       -2.8626219328       -4.9287829999
 H           1.0    -3.4785939544        1.0892647234       -5.2494030951
 H           1.0    -0.2419883700        1.4661801714       -6.1840076169

          INTERNUCLEAR DISTANCES (ANGS.)
          ------------------------------

                1 C          2 C          3 C          4 C          5 O     

   1 C       0.0000000    2.4682221 *  1.5145559 *  2.4661350 *  3.5792859  
   2 C       2.4682221 *  0.0000000    1.4138104 *  2.5092452 *  3.6152871  
   3 C       1.5145559 *  1.4138104 *  0.0000000    2.8931739 *  4.1155158  
   4 C       2.4661350 *  2.5092452 *  2.8931739 *  0.0000000    1.2228138 *
   5 O       3.5792859    3.6152871    4.1155158    1.2228138 *  0.0000000  
   6 C       1.3161003 *  2.8390492 *  2.4726874 *  1.5121941 *  2.4082074 *
   7 H       2.1028721 *  3.9071221    3.4758444    2.2183618 *  2.6638670 *
   8 C       3.5847690    2.5709353 *  3.0304121    2.6523598 *  3.3141650  
   9 C       2.9864059 *  2.8589770 *  2.6009033 *  3.0131929    3.8702884  
  10 C       2.6609996 *  2.5728308 *  1.8468451 *  3.6369995    4.7251430  
  11 C       2.8492770 *  1.4108112 *  2.3955147 *  1.5428909 *  2.4282470 *
  12 H       3.8893740    2.1368545 *  3.3746131    2.1961862 *  2.6321862 *
  13 H       1.0844713 *  3.4134179    2.2281636 *  3.4673702    4.4948585  
  14 H       3.4474082    1.0816485 *  2.1651283 *  3.4853784    4.4946138  
  15 H       2.1850698 *  2.1351387 *  1.0868931 *  3.9319228    5.1518907  
  16 H       4.2902136    2.7044081 *  3.3872023    3.4827705    4.1463357  
  17 H       4.2439948    3.4391329    3.9623350    2.7694766 *  3.0193200  
  18 H       3.0311952    3.6098536    3.1676570    3.0565823    3.7449594  
  19 H       3.4857939    2.6964839 *  2.2843579 *  4.3295715    5.4173906  
  20 H       2.8135887 *  3.4445205    2.3634681 *  4.3101113    5.3917983  

                6 C          7 H          8 C          9 C         10 C     

   1 C       1.3161003 *  2.1028721 *  3.5847690    2.9864059 *  2.6609996 *
   2 C       2.8390492 *  3.9071221    2.5709353 *  2.8589770 *  2.5728308 *
   3 C       2.4726874 *  3.4758444    3.0304121    2.6009033 *  1.8468451 *
   4 C       1.5121941 *  2.2183618 *  2.6523598 *  3.0131929    3.6369995  
   5 O       2.4082074 *  2.6638670 *  3.3141650    3.8702884    4.7251430  
   6 C       0.0000000    1.0821974 *  3.4496488    3.1619973    3.4014597  
   7 H       1.0821974 *  0.0000000    4.3428075    3.9908474    4.3116870  
   8 C       3.4496488    4.3428075    0.0000000    1.4126757 *  2.4253591 *
   9 C       3.1619973    3.9908474    1.4126757 *  0.0000000    1.4113800 *
  10 C       3.4014597    4.3116870    2.4253591 *  1.4113800 *  0.0000000  
  11 C       2.5704001 *  3.5464976    1.8411024 *  2.6105455 *  3.0391101  
  12 H       3.4867701    4.3661531    2.3290803 *  3.4514560    3.9707534  
  13 H       2.0959827 *  2.4573663 *  4.5400399    3.7206998    3.1873083  
  14 H       3.9104900    4.9700314    3.1086505    3.5477548    3.1011829  
  15 H       3.3586053    4.2643257    3.9665888    3.4424459    2.3310589 *
  16 H       4.3282364    5.2934611    1.0856227 *  2.1374568 *  2.7404644 *
  17 H       3.7931116    4.5134746    1.0862113 *  2.1357330 *  3.3923081  
  18 H       2.9833399 *  3.5641102    2.1466953 *  1.0813513 *  2.1463204 *
  19 H       4.2812764    5.2610796    2.7393732 *  2.1382177 *  1.0853490 *
  20 H       3.7214076    4.4664809    3.3921603    2.1339213 *  1.0859546 *

               11 C         12 H         13 H         14 H         15 H     

   1 C       2.8492770 *  3.8893740    1.0844713 *  3.4474082    2.1850698 *
   2 C       1.4108112 *  2.1368545 *  3.4134179    1.0816485 *  2.1351387 *
   3 C       2.3955147 *  3.3746131    2.2281636 *  2.1651283 *  1.0868931 *
   4 C       1.5428909 *  2.1961862 *  3.4673702    3.4853784    3.9319228  
   5 O       2.4282470 *  2.6321862 *  4.4948585    4.4946138    5.1518907  
   6 C       2.5704001 *  3.4867701    2.0959827 *  3.9104900    3.3586053  
   7 H       3.5464976    4.3661531    2.4573663 *  4.9700314    4.2643257  
   8 C       1.8411024 *  2.3290803 *  4.5400399    3.1086505    3.9665888  
   9 C       2.6105455 *  3.4514560    3.7206998    3.5477548    3.4424459  
  10 C       3.0391101    3.9707534    3.1873083    3.1011829    2.3310589 *
  11 C       0.0000000    1.0872427 *  3.9298338    2.1618567 *  3.3712090  
  12 H       1.0872427 *  0.0000000    4.9684309    2.4716496 *  4.2558020  
  13 H       3.9298338    4.9684309    0.0000000    4.2933824    2.4629093 *
  14 H       2.1618567 *  2.4716496 *  4.2933824    0.0000000    2.4701074 *
  15 H       3.3712090    4.2558020    2.4629093 *  2.4701074 *  0.0000000  
  16 H       2.2742558 *  2.4507376 *  5.2355408    2.8460591 *  4.1484991  
  17 H       2.3543931 *  2.5576758 *  5.2058937    4.0098011    4.9609221  
  18 H       3.1845922    4.0534671    3.6244075    4.4468131    4.0346426  
  19 H       3.3791245    4.1331135    4.0144360    2.8269256 *  2.4651931 *
  20 H       3.9784982    4.9718660    2.9644580 *  4.0013867    2.5587840 *

               16 H         17 H         18 H         19 H         20 H     

   1 C       4.2902136    4.2439948    3.0311952    3.4857939    2.8135887 *
   2 C       2.7044081 *  3.4391329    3.6098536    2.6964839 *  3.4445205  
   3 C       3.3872023    3.9623350    3.1676570    2.2843579 *  2.3634681 *
   4 C       3.4827705    2.7694766 *  3.0565823    4.3295715    4.3101113  
   5 O       4.1463357    3.0193200    3.7449594    5.4173906    5.3917983  
   6 C       4.3282364    3.7931116    2.9833399 *  4.2812764    3.7214076  
   7 H       5.2934611    4.5134746    3.5641102    5.2610796    4.4664809  
   8 C       1.0856227 *  1.0862113 *  2.1466953 *  2.7393732 *  3.3921603  
   9 C       2.1374568 *  2.1357330 *  1.0813513 *  2.1382177 *  2.1339213 *
  10 C       2.7404644 *  3.3923081    2.1463204 *  1.0853490 *  1.0859546 *
  11 C       2.2742558 *  2.3543931 *  3.1845922    3.3791245    3.9784982  
  12 H       2.4507376 *  2.5576758 *  4.0534671    4.1331135    4.9718660  
  13 H       5.2355408    5.2058937    3.6244075    4.0144360    2.9644580 *
  14 H       2.8460591 *  4.0098011    4.4468131    2.8269256 *  4.0013867  
  15 H       4.1484991    4.9609221    4.0346426    2.4651931 *  2.5587840 *
  16 H       0.0000000    1.7940205 *  3.0647549    2.6094832 *  3.7848516  
  17 H       1.7940205 *  0.0000000    2.4418354 *  3.7860757    4.2582103  
  18 H       3.0647549    2.4418354 *  0.0000000    3.0668507    2.4419703 *
  19 H       2.6094832 *  3.7860757    3.0668507    0.0000000    1.7938380 *
  20 H       3.7848516    4.2582103    2.4419703 *  1.7938380 *  0.0000000  

  * ... LESS THAN  3.000


     ATOMIC BASIS SET
     ----------------
 THE CONTRACTED PRIMITIVE FUNCTIONS HAVE BEEN UNNORMALIZED
 THE CONTRACTED BASIS FUNCTIONS ARE NOW NORMALIZED TO UNITY

  SHELL TYPE  PRIMITIVE        EXPONENT          CONTRACTION COEFFICIENT(S)

 C         

      1   S       1            71.6168373    0.154328967295
      1   S       2            13.0450963    0.535328142282
      1   S       3             3.5305122    0.444634542185

      2   L       4             2.9412494   -0.099967229187    0.155916274999
      2   L       5             0.6834831    0.399512826089    0.607683718598
      2   L       6             0.2222899    0.700115468880    0.391957393099

 C         

      3   S       7            71.6168373    0.154328967295
      3   S       8            13.0450963    0.535328142282
      3   S       9             3.5305122    0.444634542185

      4   L      10             2.9412494   -0.099967229187    0.155916274999
      4   L      11             0.6834831    0.399512826089    0.607683718598
      4   L      12             0.2222899    0.700115468880    0.391957393099

 C         

      5   S      13            71.6168373    0.154328967295
      5   S      14            13.0450963    0.535328142282
      5   S      15             3.5305122    0.444634542185

      6   L      16             2.9412494   -0.099967229187    0.155916274999
      6   L      17             0.6834831    0.399512826089    0.607683718598
      6   L      18             0.2222899    0.700115468880    0.391957393099

 C         

      7   S      19            71.6168373    0.154328967295
      7   S      20            13.0450963    0.535328142282
      7   S      21             3.5305122    0.444634542185

      8   L      22             2.9412494   -0.099967229187    0.155916274999
      8   L      23             0.6834831    0.399512826089    0.607683718598
      8   L      24             0.2222899    0.700115468880    0.391957393099

 O         

      9   S      25           130.7093214    0.154328967295
      9   S      26            23.8088661    0.535328142282
      9   S      27             6.4436083    0.444634542185

     10   L      28             5.0331513   -0.099967229187    0.155916274999
     10   L      29             1.1695961    0.399512826089    0.607683718598
     10   L      30             0.3803890    0.700115468880    0.391957393099

 C         

     11   S      31            71.6168373    0.154328967295
     11   S      32            13.0450963    0.535328142282
     11   S      33             3.5305122    0.444634542185

     12   L      34             2.9412494   -0.099967229187    0.155916274999
     12   L      35             0.6834831    0.399512826089    0.607683718598
     12   L      36             0.2222899    0.700115468880    0.391957393099

 H         

     13   S      37             3.4252509    0.154328967295
     13   S      38             0.6239137    0.535328142282
     13   S      39             0.1688554    0.444634542185

 C         

     14   S      40            71.6168373    0.154328967295
     14   S      41            13.0450963    0.535328142282
     14   S      42             3.5305122    0.444634542185

     15   L      43             2.9412494   -0.099967229187    0.155916274999
     15   L      44             0.6834831    0.399512826089    0.607683718598
     15   L      45             0.2222899    0.700115468880    0.391957393099

 C         

     16   S      46            71.6168373    0.154328967295
     16   S      47            13.0450963    0.535328142282
     16   S      48             3.5305122    0.444634542185

     17   L      49             2.9412494   -0.099967229187    0.155916274999
     17   L      50             0.6834831    0.399512826089    0.607683718598
     17   L      51             0.2222899    0.700115468880    0.391957393099

 C         

     18   S      52            71.6168373    0.154328967295
     18   S      53            13.0450963    0.535328142282
     18   S      54             3.5305122    0.444634542185

     19   L      55             2.9412494   -0.099967229187    0.155916274999
     19   L      56             0.6834831    0.399512826089    0.607683718598
     19   L      57             0.2222899    0.700115468880    0.391957393099

 C         

     20   S      58            71.6168373    0.154328967295
     20   S      59            13.0450963    0.535328142282
     20   S      60             3.5305122    0.444634542185

     21   L      61             2.9412494   -0.099967229187    0.155916274999
     21   L      62             0.6834831    0.399512826089    0.607683718598
     21   L      63             0.2222899    0.700115468880    0.391957393099

 H         

     22   S      64             3.4252509    0.154328967295
     22   S      65             0.6239137    0.535328142282
     22   S      66             0.1688554    0.444634542185

 H         

     23   S      67             3.4252509    0.154328967295
     23   S      68             0.6239137    0.535328142282
     23   S      69             0.1688554    0.444634542185

 H         

     24   S      70             3.4252509    0.154328967295
     24   S      71             0.6239137    0.535328142282
     24   S      72             0.1688554    0.444634542185

 H         

     25   S      73             3.4252509    0.154328967295
     25   S      74             0.6239137    0.535328142282
     25   S      75             0.1688554    0.444634542185

 H         

     26   S      76             3.4252509    0.154328967295
     26   S      77             0.6239137    0.535328142282
     26   S      78             0.1688554    0.444634542185

 H         

     27   S      79             3.4252509    0.154328967295
     27   S      80             0.6239137    0.535328142282
     27   S      81             0.1688554    0.444634542185

 H         

     28   S      82             3.4252509    0.154328967295
     28   S      83             0.6239137    0.535328142282
     28   S      84             0.1688554    0.444634542185

 H         

     29   S      85             3.4252509    0.154328967295
     29   S      86             0.6239137    0.535328142282
     29   S      87             0.1688554    0.444634542185

 H         

     30   S      88             3.4252509    0.154328967295
     30   S      89             0.6239137    0.535328142282
     30   S      90             0.1688554    0.444634542185

 TOTAL NUMBER OF BASIS SET SHELLS             =   30
 NUMBER OF CARTESIAN GAUSSIAN BASIS FUNCTIONS =   60
 NUMBER OF ELECTRONS                          =   72
 CHARGE OF MOLECULE                           =    0
 SPIN MULTIPLICITY                            =    1
 NUMBER OF OCCUPIED ORBITALS (ALPHA)          =   36
 NUMBER OF OCCUPIED ORBITALS (BETA )          =   36
 TOTAL NUMBER OF ATOMS                        =   20
 THE NUCLEAR REPULSION ENERGY IS      517.4269081560

     $CONTRL OPTIONS
     ---------------
 SCFTYP=RHF          RUNTYP=IRC          EXETYP=RUN     
 MPLEVL=       0     CITYP =NONE         CCTYP =NONE         VBTYP =NONE    
 DFTTYP=NONE         TDDFT =NONE    
 MULT  =       1     ICHARG=       0     NZVAR =       1     COORD =UNIQUE  
 PP    =NONE         RELWFN=NONE         LOCAL =NONE         NUMGRD=       F
 ISPHER=      -1     NOSYM =       0     MAXIT =      30     UNITS =ANGS    
 PLTORB=       F     MOLPLT=       F     AIMPAC=       F     FRIEND=        
 NPRINT=       7     IREST =       0     GEOM  =INPUT   
 NORMF =       0     NORMP =       0     ITOL  =      20     ICUT  =       9
 INTTYP=BEST         GRDTYP=BEST         QMTTOL= 1.0E-06

     $SYSTEM OPTIONS
     ---------------
  REPLICATED MEMORY=     1000000 WORDS (ON EVERY NODE).
 DISTRIBUTED MEMDDI=           0 MILLION WORDS IN AGGREGATE,
 MEMDDI DISTRIBUTED OVER   1 PROCESSORS IS           0 WORDS/PROCESSOR.
 TOTAL MEMORY REQUESTED ON EACH PROCESSOR=     1000000 WORDS.
 TIMLIM=      525600.00 MINUTES, OR     365.0 DAYS.
 PARALL= F  BALTYP=  DLB     KDIAG=    0  COREFL= F
 MXSEQ2=     300 MXSEQ3=     150  mem10=         0

          ----------------
          PROPERTIES INPUT
          ----------------

     MOMENTS            FIELD           POTENTIAL          DENSITY
 IEMOM =       1   IEFLD =       0   IEPOT =       0   IEDEN =       0
 WHERE =COMASS     WHERE =NUCLEI     WHERE =NUCLEI     WHERE =NUCLEI  
 OUTPUT=BOTH       OUTPUT=BOTH       OUTPUT=BOTH       OUTPUT=BOTH    
 IEMINT=       0   IEFINT=       0                     IEDINT=       0
                                                       MORB  =       0
          EXTRAPOLATION IN EFFECT
          SOSCF IN EFFECT
 ORBITAL PRINTING OPTION: NPREO=     1    60     2     1

     -------------------------------
     INTEGRAL TRANSFORMATION OPTIONS
     -------------------------------
     NWORD  =            0
     CUTOFF = 1.0E-09     MPTRAN =       0
     DIRTRF =       F     AOINTS =DUP     

          ----------------------
          INTEGRAL INPUT OPTIONS
          ----------------------
 NOPK  =       1 NORDER=       0 SCHWRZ=       T


 -----------------------------------------------
  STATISTICS ON AUTOMATIC COORDINATE GENERATION 
 -----------------------------------------------
  NUMBER OF USER SPECIFIED BONDS                             6
  NUMBER OF BONDS                                           27
  NUMBER OF ANGLES                                          77
  NUMBER OF TORSIONS                                        62
  NUMBER OF EXTRA COORD.                                     0
  NUMBER OF EXTRA COORD. FOR CONSTRAINTS                     0
  NUMBER OF CONSTRAINED COORD.                               0

  TOTAL NUMBER OF PRIMITIVES                               166
 -----------------------------------------------

   --- ENCODED Z MATRIX ---
 COORD  TYPE   I   J   K   L   M   N
    1      1    1   3
    2      1    1   6
    3      1    1  13
    4      1    2   3
    5      1    2  11
    6      1    2  14
    7      1    2  11
    8      1    2   3
    9      1    3  10
   10      1    3  10
   11      1    3  15
   12      1    4  11
   13      1    4   6
   14      1    4   5
   15      1    6   7
   16      1    8   9
   17      1    8   9
   18      1    8  11
   19      1    8  11
   20      1    8  17
   21      1    8  16
   22      1    9  10
   23      1    9  18
   24      1    9  10
   25      1   10  20
   26      1   10  19
   27      1   11  12
   28      2    1   3  10
   29      2    1   3  10
   30      2    1   3   2
   31      2    1   3  15
   32      2    1   3   2
   33      2    1   6   7
   34      2    1   6   4
   35      2    2  11   8
   36      2    2   3  10
   37      2    2  11   8
   38      2    2  11  12
   39      2    2   3  10
   40      2    2   3  10
   41      2    2  11   8
   42      2    2   3  10
   43      2    2  11  12
   44      2    2   3  15
   45      2    2  11   8
   46      2    2   3  15
   47      2    2  11   4
   48      2    2  11   4
   49      2    3   2  14
   50      2    3   2  11
   51      2    3   2  11
   52      2    3   2  14
   53      2    3  10   9
   54      2    3   2  11
   55      2    3  10  19
   56      2    3  10  20
   57      2    3  10   9
   58      2    3  10  20
   59      2    3  10   9
   60      2    3  10   9
   61      2    3   1   6
   62      2    3   2  11
   63      2    3  10  19
   64      2    3   1  13
   65      2    4   6   7
   66      2    4  11  12
   67      2    4  11   8
   68      2    4  11   8
   69      2    5   4   6
   70      2    5   4  11
   71      2    6   4  11
   72      2    6   1  13
   73      2    8   9  18
   74      2    8   9  10
   75      2    8   9  10
   76      2    8   9  18
   77      2    8   9  10
   78      2    8  11  12
   79      2    8  11  12
   80      2    8   9  10
   81      2    9   8  16
   82      2    9   8  17
   83      2    9   8  11
   84      2    9   8  11
   85      2    9   8  16
   86      2    9   8  17
   87      2    9   8  11
   88      2    9   8  11
   89      2    9  10  19
   90      2    9  10  20
   91      2    9  10  19
   92      2    9  10  20
   93      2   10   3  15
   94      2   10   9  18
   95      2   10   9  18
   96      2   10   3  15
   97      2   11   2  14
   98      2   11   2  14
   99      2   11   8  16
  100      2   11   8  17
  101      2   11   8  16
  102      2   11   8  17
  103      2   16   8  17
  104      2   19  10  20
  105      3    1   3  10   9
  106      3    1   6   4   5
  107      3    1   3   2  11
  108      3    1   6   4  11
  109      3    1   3  10  19
  110      3    1   3  10  20
  111      3    1   3   2  14
  112      3    2   3   1  13
  113      3    2   3   1   6
  114      3    2  11   4   5
  115      3    2  11   4   6
  116      3    2   3  10  19
  117      3    2   3  10  20
  118      3    2   3  10   9
  119      3    2  11   8  16
  120      3    2  11   8  17
  121      3    2  11   8   9
  122      3    3   2  11   8
  123      3    3   1   6   4
  124      3    3   2  11  12
  125      3    3   1   6   7
  126      3    3   2  11   4
  127      3    3  10   9  18
  128      3    3  10   9   8
  129      3    4   6   1  13
  130      3    4  11   8  16
  131      3    4  11   8  17
  132      3    4  11   8   9
  133      3    4  11   2  14
  134      3    5   4  11   8
  135      3    5   4  11  12
  136      3    5   4   6   7
  137      3    6   4  11   8
  138      3    6   4  11  12
  139      3    6   1   3  10
  140      3    6   1   3  15
  141      3    7   6   1  13
  142      3    7   6   4  11
  143      3    8   9  10  19
  144      3    8   9  10  20
  145      3    8  11   2  14
  146      3    9  10   3  15
  147      3    9   8  11  12
  148      3   10   9   8  16
  149      3   10   9   8  17
  150      3   10   9   8  11
  151      3   10   3   1  13
  152      3   10   3   2  14
  153      3   10   3   2  11
  154      3   11   8   9  18
  155      3   11   2   3  15
  156      3   12  11   2  14
  157      3   12  11   8  16
  158      3   12  11   8  17
  159      3   13   1   3  15
  160      3   14   2   3  15
  161      3   15   3  10  20
  162      3   15   3  10  19
  163      3   16   8   9  18
  164      3   17   8   9  18
  165      3   18   9  10  20
  166      3   18   9  10  19

          INDEP./SYM. INTERNAL COORDINATES
          --------------------------------
 CRD  1=   0.1614 (  1)  0.1631 ( 12)  0.3161 ( 28)  0.3161 ( 29)  0.3131 ( 67)
           0.3131 ( 68) -0.1509 (107) -0.1410 (111)  0.1026 (112) -0.1075 (114)
          -0.1425 (122)  0.1215 (125)  0.1452 (126)  0.1355 (133) -0.1197 (142)
          -0.1522 (145)  0.1486 (152)  0.1386 (153)
 CRD  2=   0.3370 (  1)  0.2247 (  2) -0.3350 ( 12) -0.1485 ( 13)  0.1032 ( 31)
           0.2077 ( 33) -0.1178 ( 61)  0.1721 ( 64) -0.1990 ( 65) -0.1173 ( 66)
           0.1380 ( 69) -0.2445 ( 70)  0.1065 ( 71) -0.1845 (105) -0.1264 (109)
          -0.1383 (110) -0.1388 (118) -0.1398 (121) -0.1362 (130) -0.1487 (131)
          -0.2020 (132)
 CRD  3=   0.1340 (  1) -0.1443 (  2)  0.2151 ( 12) -0.4166 ( 13)  0.1019 ( 33)
           0.1263 ( 34)  0.1995 ( 64) -0.2281 ( 65) -0.4556 ( 69)  0.4712 ( 70)
          -0.2164 ( 72)
 CRD  4=  -0.4202 (  1)  0.1929 (  2) -0.1641 (  3) -0.1257 ( 13)  0.1698 ( 14)
           0.1147 ( 33) -0.3710 ( 64) -0.1659 ( 65) -0.1019 ( 66)  0.1392 ( 70)
          -0.1858 ( 71)  0.2765 ( 72)  0.1003 (126) -0.1154 (134) -0.1116 (137)
          -0.1233 (139)
 CRD  5=  -0.3258 (  1) -0.3629 (  2) -0.1143 (  6) -0.4656 ( 12) -0.2327 ( 13)
          -0.1706 ( 14) -0.3538 ( 15) -0.1522 ( 33)  0.2283 ( 34) -0.1184 ( 61)
           0.1650 ( 64)
 CRD  6=   0.2960 (  2)  0.1322 (  3)  0.1276 (  9)  0.1276 ( 10) -0.1034 ( 12)
          -0.1661 ( 13) -0.1247 ( 18) -0.1247 ( 19)  0.3617 ( 33) -0.1027 ( 61)
          -0.1613 ( 64) -0.3560 ( 65) -0.1345 ( 69)  0.2641 ( 72)  0.1055 (112)
           0.1304 (113)  0.1081 (114)  0.1436 (115)  0.1348 (134)  0.1704 (137)
           0.1518 (139)  0.1269 (151)
 CRD  7=  -0.1432 (  3)  0.1618 (  9)  0.1618 ( 10)  0.1598 ( 14) -0.1581 ( 18)
          -0.1581 ( 19) -0.1322 ( 20)  0.1396 ( 25) -0.1525 ( 30) -0.1525 ( 32)
          -0.1759 ( 33)  0.1490 ( 47)  0.1490 ( 48)  0.1438 ( 56)  0.1438 ( 58)
           0.1258 ( 61)  0.1011 ( 64)  0.1585 ( 65)  0.1703 ( 69) -0.1330 ( 71)
          -0.2270 ( 72) -0.1494 (100) -0.1494 (102)  0.1101 (113)  0.1216 (115)
          -0.1159 (143) -0.1068 (148) -0.1030 (150) -0.1015 (154) -0.1053 (163)
          -0.1058 (166)
 CRD  8=  -0.2070 (  4) -0.1759 (  5) -0.1220 (  6) -0.1759 (  7) -0.2070 (  8)
          -0.1233 ( 11) -0.2280 ( 16) -0.2280 ( 17) -0.2241 ( 20) -0.2207 ( 22)
          -0.2207 ( 24) -0.2472 ( 25) -0.1255 ( 27)  0.1028 ( 70) -0.1505 ( 74)
          -0.1505 ( 75) -0.1505 ( 77) -0.1505 ( 80) -0.1108 ( 81) -0.1108 ( 85)
          -0.1441 (109) -0.1581 (116)  0.1414 (119)  0.1227 (130)
 CRD  9=   0.1300 (  2)  0.2453 (  3)  0.1979 (  5)  0.1979 (  7)  0.1559 ( 11)
           0.1516 ( 12)  0.1839 ( 13)  0.3907 ( 14) -0.2059 ( 15)  0.1091 ( 20)
           0.1035 ( 27) -0.1776 ( 33)  0.2901 ( 34) -0.1450 ( 49) -0.1450 ( 52)
          -0.1664 ( 61)  0.1153 ( 64) -0.1124 ( 65)  0.1727 ( 70) -0.2485 ( 71)
          -0.1050 (132)
 CRD 10=   0.1611 (  1)  0.3085 (  3)  0.1827 (  4) -0.1166 (  5) -0.1166 (  7)
           0.1827 (  8) -0.1087 ( 12) -0.1348 ( 15) -0.1204 ( 20)  0.1113 ( 21)
           0.1076 ( 25) -0.1156 ( 26)  0.1719 ( 34)  0.1528 ( 49)  0.1528 ( 52)
          -0.2171 ( 61)  0.2104 ( 64) -0.1357 ( 65) -0.2072 ( 97) -0.2072 ( 98)
           0.1351 (105)  0.1226 (118)  0.1101 (121)  0.1066 (132) -0.1213 (134)
          -0.1243 (137)  0.1167 (146)
 CRD 11=   0.3011 (  9)  0.3011 ( 10)  0.3110 ( 18)  0.3110 ( 19)  0.1569 ( 55)
           0.1569 ( 63)  0.1610 ( 99)  0.1610 (101) -0.1131 (107) -0.1512 (111)
           0.1321 (122)  0.1136 (126)  0.1507 (133)  0.1031 (144)  0.1693 (145)
          -0.1050 (149) -0.1686 (152) -0.1305 (153)  0.1190 (163) -0.1177 (166)
 CRD 12=  -0.2332 (  6) -0.1234 (  9) -0.1234 ( 10) -0.1365 ( 16) -0.1365 ( 17)
          -0.1074 ( 20)  0.1319 ( 21) -0.1208 ( 22) -0.3456 ( 23) -0.1208 ( 24)
          -0.1200 ( 25)  0.1168 ( 26)  0.1028 ( 44)  0.1028 ( 46)  0.1678 ( 55)
           0.1678 ( 63)  0.1169 ( 74)  0.1169 ( 75)  0.1169 ( 77)  0.1169 ( 80)
           0.1810 ( 99)  0.1810 (101)  0.2118 (127)  0.1495 (128) -0.1508 (150)
          -0.2070 (154)
 CRD 13=  -0.1515 (  4) -0.1694 (  5) -0.3539 (  6) -0.1694 (  7) -0.1515 (  8)
          -0.1520 ( 11)  0.1985 ( 16)  0.1985 ( 17)  0.1502 ( 20)  0.1556 ( 21)
           0.1729 ( 22)  0.1947 ( 23)  0.1729 ( 24)  0.1693 ( 25)  0.1666 ( 26)
           0.1242 ( 55)  0.1242 ( 63)  0.1478 ( 82)  0.1478 ( 86)  0.1277 ( 90)
           0.1277 ( 92)  0.1071 ( 99) -0.1065 (100)  0.1071 (101) -0.1065 (102)
          -0.1093 (129)
 CRD 14=   0.1608 (  3)  0.1258 (  4)  0.1258 (  8) -0.3212 ( 11)  0.1023 ( 13)
          -0.1005 ( 14)  0.1016 ( 16)  0.1016 ( 17) -0.1212 ( 18) -0.1212 ( 19)
          -0.1610 ( 22) -0.1610 ( 24)  0.3686 ( 27) -0.1388 ( 31)  0.1315 ( 56)
           0.1315 ( 58)  0.1088 ( 66) -0.1189 ( 69)  0.1453 ( 72)  0.1555 ( 73)
           0.1555 ( 76) -0.1682 ( 94) -0.1682 ( 95) -0.1247 (100) -0.1247 (102)
           0.1008 (110)
 CRD 15=  -0.1082 ( 11) -0.2279 ( 16) -0.2279 ( 17) -0.1234 ( 20) -0.3612 ( 21)
           0.2151 ( 22)  0.2151 ( 24)  0.1185 ( 25)  0.3491 ( 26)  0.1241 ( 27)
          -0.2536 ( 73) -0.2536 ( 76)  0.2489 ( 94)  0.2489 ( 95)
 CRD 16=   0.2088 (  3)  0.3667 (  6) -0.4654 ( 11)  0.1962 ( 14) -0.1433 ( 15)
          -0.2022 ( 23) -0.4713 ( 27)
 CRD 17=   0.1446 (  4) -0.1534 (  5) -0.1534 (  7)  0.1446 (  8)  0.2992 ( 11)
           0.1463 ( 20) -0.1338 ( 25) -0.2597 ( 27) -0.1151 ( 38) -0.1151 ( 43)
           0.1131 ( 44)  0.1131 ( 46)  0.2278 ( 49)  0.2278 ( 52) -0.1035 ( 81)
           0.1154 ( 82) -0.1035 ( 85)  0.1154 ( 86) -0.1188 ( 90) -0.1188 ( 92)
          -0.2359 ( 97) -0.2359 ( 98) -0.1094 (146) -0.1250 (147)  0.1095 (160)
 CRD 18=  -0.3031 (  6)  0.1573 ( 11)  0.1011 ( 20) -0.1859 ( 21) -0.5105 ( 23)
           0.1379 ( 25) -0.2602 ( 26)  0.1143 ( 27)  0.1419 (106)  0.1588 (108)
          -0.1403 (123) -0.1149 (125) -0.1359 (129)  0.1179 (136) -0.1105 (141)
           0.1348 (142)  0.1273 (146)
 CRD 19=  -0.1423 (  9) -0.1423 ( 10) -0.1986 ( 11)  0.1314 ( 18)  0.1314 ( 19)
           0.2434 ( 20) -0.2421 ( 21) -0.2403 ( 23)  0.1132 ( 25) -0.1095 ( 26)
           0.1425 ( 27)  0.1113 ( 78)  0.1113 ( 79) -0.1290 ( 81) -0.1290 ( 85)
          -0.1481 ( 93) -0.1481 ( 96) -0.1328 (106) -0.1002 (107) -0.1690 (108)
           0.1066 (113)  0.1249 (114)  0.1608 (115)  0.1747 (135) -0.1220 (136)
           0.1186 (137)  0.2106 (138)  0.1376 (140) -0.1583 (142) -0.1542 (155)
           0.1166 (159) -0.1265 (160)
 CRD 20=  -0.1222 ( 18) -0.1222 ( 19)  0.1685 ( 20) -0.1862 ( 21) -0.1827 ( 23)
           0.2240 ( 25) -0.1978 ( 26) -0.1626 ( 27) -0.1388 ( 78) -0.1388 ( 79)
          -0.1211 ( 89) -0.1211 ( 91) -0.1028 (106) -0.1055 (112) -0.1334 (113)
           0.2072 (123)  0.1936 (124)  0.1982 (125)  0.1430 (126)  0.1781 (129)
           0.1178 (133) -0.1065 (138) -0.1392 (139) -0.1487 (140)  0.1691 (141)
          -0.1113 (151) -0.1069 (153)  0.1684 (156) -0.1208 (159)
 CRD 21=  -0.3140 ( 20)  0.2500 ( 21)  0.3495 ( 25) -0.2935 ( 26) -0.1928 ( 55)
           0.1203 ( 56)  0.1203 ( 58) -0.1928 ( 63)  0.1976 ( 99) -0.1392 (100)
           0.1976 (101) -0.1392 (102)  0.2238 (143)  0.1537 (144)  0.2243 (148)
           0.1642 (149)  0.2315 (163)  0.1713 (164)  0.1619 (165)  0.2320 (166)
 CRD 22=  -0.4206 ( 20) -0.3663 ( 21) -0.4341 ( 25) -0.3562 ( 26)  0.1054 ( 82)
           0.1054 ( 86)  0.1015 ( 90)  0.1015 ( 92) -0.1006 (100) -0.1006 (102)
          -0.1339 (103) -0.1338 (104) -0.1538 (143) -0.1119 (144)  0.1538 (148)
           0.1099 (149)  0.1049 (163) -0.1052 (166)
 CRD 23=  -0.4159 ( 20) -0.3704 ( 21)  0.4047 ( 25)  0.3781 ( 26) -0.1007 ( 94)
          -0.1007 ( 95) -0.1941 (103)  0.1929 (104)  0.1017 (117)
 CRD 24=   0.3235 (  6)  0.1284 ( 11) -0.1406 ( 14)  0.1250 ( 20) -0.1708 ( 23)
           0.1208 ( 26)  0.1567 ( 27) -0.1483 ( 56) -0.1483 ( 58) -0.1645 ( 81)
           0.1197 ( 82) -0.1645 ( 85)  0.1197 ( 86) -0.1132 ( 89) -0.1132 ( 91)
           0.1096 ( 99) -0.1892 (100)  0.1096 (101) -0.1892 (102) -0.1044 (109)
          -0.1033 (116)  0.1659 (119)  0.1596 (130) -0.1373 (144)  0.1013 (147)
           0.1402 (149)  0.2243 (157)  0.1573 (158) -0.1398 (162)  0.1245 (164)
          -0.1262 (165)
 CRD 25=  -0.1680 (  3) -0.1106 (  5) -0.1106 (  7)  0.1607 ( 14) -0.1381 ( 20)
           0.1989 ( 21)  0.1419 ( 25)  0.1009 ( 55) -0.1574 ( 56) -0.1574 ( 58)
           0.1009 ( 63) -0.1231 ( 82) -0.1231 ( 86) -0.1444 ( 89)  0.1353 ( 90)
          -0.1444 ( 91)  0.1353 ( 92) -0.1502 (109) -0.1239 (110) -0.1657 (116)
          -0.1395 (117) -0.1310 (119) -0.1507 (120) -0.1212 (130) -0.1408 (131)
          -0.1257 (146) -0.1121 (147) -0.1926 (157) -0.2123 (158) -0.2102 (161)
          -0.2364 (162)
 CRD 26=  -0.1488 (  3)  0.2324 (  6) -0.2236 ( 21)  0.1684 ( 23) -0.2573 ( 26)
           0.1073 ( 56)  0.1073 ( 58)  0.1392 (100)  0.1392 (102) -0.1232 (103)
          -0.1177 (104) -0.1490 (110) -0.1415 (117)  0.1076 (120)  0.1448 (128)
           0.1155 (131)  0.1378 (143)  0.2727 (144) -0.1373 (148) -0.2819 (149)
          -0.1325 (150)  0.1182 (158) -0.1731 (161) -0.2241 (164)  0.2167 (165)
 CRD 27=  -0.1532 ( 11)  0.1144 ( 15) -0.1218 ( 27) -0.1310 ( 78) -0.1310 ( 79)
          -0.1482 ( 93) -0.1482 ( 96) -0.1437 (107)  0.1220 (108) -0.1273 (111)
           0.1159 (112)  0.1472 (113) -0.1096 (115) -0.1447 (123)  0.1986 (124)
          -0.2612 (125)  0.1346 (126) -0.1121 (129)  0.1226 (133) -0.1546 (135)
           0.2005 (136) -0.1862 (138)  0.1027 (139)  0.2378 (140) -0.2286 (141)
           0.2322 (142) -0.2140 (155)  0.1867 (156)  0.2065 (159) -0.1976 (160)
 CRD 28=   0.1283 (  2)  0.4261 (  3)  0.1663 ( 11) -0.1829 ( 12) -0.3082 ( 14)
           0.2589 ( 15) -0.2783 ( 27) -0.3255 ( 33)  0.3143 ( 65) -0.2488 ( 69)
           0.2626 ( 70)
 CRD 29=  -0.2419 (  1) -0.2127 ( 11) -0.2220 ( 12)  0.1257 ( 13)  0.2895 ( 14)
           0.6234 ( 15)  0.1120 ( 33)  0.2715 ( 64) -0.1507 ( 65)  0.1104 ( 70)
          -0.2296 ( 72)
 CRD 30=   0.2204 (  6) -0.1265 (  9) -0.1265 ( 10)  0.1284 ( 11) -0.1287 ( 18)
          -0.1287 ( 19)  0.1471 ( 27)  0.2591 (106) -0.1582 (111)  0.2488 (112)
          -0.2466 (114)  0.2464 (125) -0.2581 (129)  0.1529 (133) -0.2292 (134)
          -0.1272 (135)  0.1054 (138) -0.2429 (142)  0.1032 (143)  0.1559 (145)
          -0.1013 (148)  0.2327 (151) -0.1561 (152)  0.1314 (159) -0.1314 (163)
           0.1337 (166)
 CRD 31=   0.2868 (  1) -0.3151 (  2) -0.2528 (  3)  0.1839 ( 11) -0.2681 ( 12)
           0.3332 ( 13)  0.3441 ( 14) -0.1860 ( 27) -0.1648 ( 64) -0.2670 ( 69)
           0.1335 ( 70)  0.1335 ( 71)  0.2494 ( 72)
 CRD 32=   0.1027 (  1)  0.2886 (  3) -0.3140 (  6)  0.1804 ( 12) -0.1852 ( 13)
           0.2037 ( 14) -0.1268 ( 15)  0.1922 ( 20) -0.2441 ( 21)  0.3774 ( 23)
           0.1920 ( 25) -0.2548 ( 26) -0.1021 ( 31) -0.1047 ( 34)  0.1081 ( 61)
          -0.1084 ( 70) -0.1222 (146)  0.1063 (147)  0.1132 (155)  0.1190 (157)
          -0.1411 (162)
 CRD 33=  -0.1520 (  1) -0.2150 (  2)  0.1683 (  3)  0.3006 ( 11)  0.1530 ( 12)
           0.1006 ( 13) -0.1048 ( 20)  0.1133 ( 25) -0.2463 ( 27) -0.1058 ( 31)
           0.2459 ( 33) -0.1643 ( 49) -0.1643 ( 52)  0.1157 ( 64) -0.2617 ( 65)
           0.1283 ( 66)  0.1861 ( 69) -0.1487 ( 70) -0.1533 ( 72)  0.1674 ( 97)
           0.1674 ( 98) -0.1073 (104)  0.1428 (109)  0.1522 (130)
 CRD 34=  -0.1032 (  1) -0.2561 (  2)  0.3600 (  3) -0.1317 (  4) -0.1236 (  5)
           0.1852 (  6) -0.1236 (  7) -0.1317 (  8)  0.1860 ( 11) -0.1660 ( 12)
          -0.2964 ( 13)  0.4140 ( 14)  0.2132 ( 15) -0.1351 ( 23)  0.2363 ( 27)
          -0.1148 ( 64) -0.1059 (110)
 CRD 35=  -0.1125 (  2)  0.2688 (  6)  0.2154 ( 15)  0.1532 ( 20) -0.1526 ( 21)
          -0.1106 ( 22)  0.3715 ( 23) -0.1106 ( 24) -0.1311 ( 26)  0.1474 ( 34)
           0.1239 ( 55)  0.1239 ( 63)  0.1147 ( 72)  0.1290 ( 99)  0.1290 (101)
           0.1077 (110)  0.1158 (117) -0.1127 (120) -0.1085 (131) -0.1067 (143)
          -0.1067 (145)  0.1313 (146) -0.1178 (147)  0.1289 (148)  0.1112 (152)
          -0.1025 (155) -0.1419 (157) -0.1787 (158)  0.1984 (161)  0.1113 (162)
           0.1218 (163)
 CRD 36=   0.1252 (  4) -0.1003 (  5) -0.1003 (  7)  0.1252 (  8)  0.1280 ( 12)
           0.1935 ( 16)  0.1935 ( 17)  0.2157 ( 20) -0.1686 ( 22) -0.1686 ( 24)
          -0.2478 ( 25)  0.1002 ( 26) -0.1151 ( 27) -0.2118 ( 73) -0.2118 ( 76)
           0.1157 ( 81)  0.1157 ( 85) -0.1082 ( 89) -0.1082 ( 91)  0.2223 ( 94)
           0.2223 ( 95) -0.1498 (103)  0.1449 (104) -0.1284 (109) -0.1616 (116)
          -0.1435 (119) -0.1124 (130)  0.1025 (143) -0.1169 (157) -0.1523 (162)
           0.1339 (163)  0.1554 (166)
 CRD 37=  -0.1308 (  6) -0.1138 ( 13)  0.1091 ( 14)  0.1072 ( 56)  0.1072 ( 58)
           0.1157 (100)  0.1157 (102)  0.1311 (111)  0.2174 (125) -0.2165 (127)
          -0.1187 (129) -0.1322 (133) -0.1023 (134) -0.1676 (135) -0.1233 (136)
           0.1149 (141) -0.2041 (142)  0.1168 (144) -0.1227 (149)  0.1148 (151)
           0.2145 (154)  0.1748 (159)  0.3017 (163) -0.3060 (166)
 CRD 38=   0.2870 (  1) -0.3941 (  2)  0.1081 (  5) -0.1714 (  6)  0.1081 (  7)
           0.2104 ( 12) -0.1938 ( 14)  0.3620 ( 15) -0.1075 ( 33)  0.3057 ( 34)
          -0.1054 ( 61) -0.1867 ( 64) -0.1982 ( 65)  0.2207 ( 69) -0.1835 ( 71)
           0.2921 ( 72)
 CRD 39=  -0.2692 (  2)  0.2646 (  3) -0.1485 (  4)  0.1050 (  5)  0.1050 (  7)
          -0.1485 (  8) -0.1135 ( 12)  0.4399 ( 13) -0.1577 ( 14) -0.1269 ( 15)
           0.2794 ( 33) -0.1351 ( 34)  0.2132 ( 61) -0.1440 ( 65)  0.1460 ( 70)
          -0.1359 ( 72)  0.1073 (106) -0.1016 (112) -0.1069 (114)  0.1167 (129)
           0.1307 (136)
 CRD 40=   0.1601 (  2) -0.1222 (  3) -0.1991 ( 13)  0.1077 ( 14) -0.1129 ( 33)
          -0.1177 ( 38) -0.1177 ( 43)  0.1088 ( 44)  0.1088 ( 46) -0.1081 ( 49)
          -0.1081 ( 52)  0.1022 ( 56)  0.1022 ( 58) -0.1030 ( 61)  0.1281 ( 78)
           0.1281 ( 79) -0.1096 ( 93) -0.1096 ( 96)  0.1097 ( 97)  0.1097 ( 98)
           0.1707 (106) -0.1730 (112) -0.1721 (114) -0.1523 (124)  0.2000 (129)
          -0.1531 (134)  0.2245 (136)  0.2148 (138)  0.1707 (140)  0.1412 (141)
           0.1302 (144)  0.1196 (149) -0.1454 (151) -0.1357 (155) -0.1686 (156)
          -0.1743 (160)  0.1432 (164)  0.1226 (165)
 CRD 41=  -0.2093 (  9) -0.2093 ( 10) -0.2192 ( 18) -0.2192 ( 19) -0.2289 (111)
          -0.1948 (125) -0.1598 (127)  0.2258 (133)  0.1732 (135)  0.1181 (136)
           0.1171 (138) -0.1532 (140) -0.1436 (141)  0.1747 (142)  0.2062 (145)
          -0.1945 (152)  0.1503 (154)  0.1245 (155)  0.1337 (156) -0.2022 (159)
          -0.1010 (160)  0.1758 (163) -0.1280 (165) -0.1509 (166)
 CRD 42=   0.2361 (  1) -0.2236 ( 12)  0.2212 ( 21) -0.2280 ( 26) -0.1169 ( 31)
          -0.1408 ( 38) -0.1408 ( 43)  0.1363 ( 44)  0.1363 ( 46) -0.1172 ( 49)
          -0.1172 ( 52)  0.1282 ( 66) -0.1224 ( 73) -0.1224 ( 76)  0.1540 ( 82)
           0.1540 ( 86) -0.1584 ( 90) -0.1584 ( 92)  0.1183 ( 94)  0.1183 ( 95)
           0.1141 ( 97)  0.1141 ( 98) -0.1132 (103)  0.1387 (104)  0.1427 (110)
           0.1970 (117)  0.1816 (120)  0.1288 (124)  0.1415 (131) -0.1281 (144)
          -0.1765 (146) -0.1894 (147) -0.1239 (149)  0.1349 (155)  0.1070 (156)
          -0.1163 (157) -0.1234 (162)
 CRD 43=  -0.1215 (  3) -0.1355 (  4) -0.1528 (  5) -0.1528 (  7) -0.1355 (  8)
           0.1697 ( 11) -0.1497 ( 16) -0.1497 ( 17)  0.1580 ( 20) -0.1490 ( 22)
          -0.1490 ( 24)  0.1641 ( 25)  0.1741 ( 27)  0.1143 ( 30) -0.1563 ( 31)
           0.1143 ( 32)  0.1173 ( 47)  0.1173 ( 48) -0.1317 ( 61)  0.1149 ( 64)
          -0.1384 ( 66)  0.1061 ( 70) -0.1097 ( 71)  0.1080 ( 81)  0.1080 ( 85)
           0.1198 ( 89)  0.1198 ( 91) -0.1918 (103) -0.1753 (104)  0.2110 (109)
           0.1213 (120) -0.2015 (130) -0.1018 (146)  0.1490 (158) -0.1441 (161)
           0.1500 (163) -0.1443 (166)
 CRD 44=   0.1793 (  9)  0.1793 ( 10) -0.1596 ( 18) -0.1596 ( 19) -0.1446 ( 55)
          -0.1026 ( 56) -0.1026 ( 58) -0.1446 ( 63) -0.1075 ( 82) -0.1075 ( 86)
           0.1078 ( 90)  0.1078 ( 92)  0.1419 ( 99)  0.1419 (101)  0.1806 (106)
          -0.1076 (108)  0.1021 (113) -0.1450 (114)  0.1410 (115)  0.1925 (129)
          -0.1754 (134) -0.2144 (135)  0.2392 (136)  0.1106 (137)  0.1303 (141)
           0.1230 (143) -0.1611 (144)  0.1236 (148) -0.1567 (149) -0.1227 (151)
          -0.1520 (159)  0.1139 (163) -0.1664 (164) -0.1557 (165)  0.1284 (166)
 CRD 45=  -0.1742 (  1)  0.1979 (  4) -0.1492 (  5) -0.1492 (  7)  0.1979 (  8)
           0.1589 ( 12) -0.1724 ( 16) -0.1724 ( 17)  0.1739 ( 21)  0.1383 ( 22)
           0.1383 ( 24) -0.1615 ( 26)  0.1258 ( 31) -0.1112 ( 44) -0.1112 ( 46)
          -0.1029 ( 67) -0.1029 ( 68) -0.1374 (103)  0.1162 (104)  0.1109 (131)
          -0.1192 (144) -0.1195 (149) -0.1049 (156)  0.2297 (158)  0.2340 (161)
           0.1066 (162) -0.1169 (164) -0.1258 (165)
 CRD 46=   0.2579 (  5)  0.2579 (  7) -0.1047 ( 16) -0.1047 ( 17) -0.2650 ( 22)
          -0.2650 ( 24)  0.1312 ( 25) -0.1370 ( 27) -0.1077 ( 44) -0.1077 ( 46)
          -0.1041 ( 56) -0.1041 ( 58)  0.1155 ( 66)  0.1091 ( 78)  0.1091 ( 79)
           0.1176 ( 82)  0.1176 ( 86)  0.1122 ( 89)  0.1122 ( 91) -0.1476 (104)
          -0.1389 (110) -0.1118 (117)  0.1686 (131) -0.1011 (134) -0.1028 (147)
           0.1006 (151) -0.1384 (157)  0.1808 (162)
 CRD 47=  -0.2365 (  4)  0.1099 (  5)  0.1099 (  7) -0.2365 (  8)  0.1572 ( 11)
           0.2473 ( 16)  0.2473 ( 17) -0.1486 ( 20) -0.1018 ( 26)  0.1153 ( 30)
           0.1153 ( 32)  0.1071 ( 38)  0.1071 ( 43)  0.1596 ( 49)  0.1596 ( 52)
          -0.1458 ( 73) -0.1458 ( 76) -0.1363 ( 81) -0.1363 ( 85) -0.1060 ( 90)
          -0.1060 ( 92)  0.1545 ( 94)  0.1545 ( 95) -0.1614 ( 97) -0.1614 ( 98)
           0.1312 (110) -0.1585 (118) -0.1494 (121)  0.1064 (130)  0.1440 (157)
 CRD 48=   0.1096 (  1)  0.1711 (  6) -0.1157 ( 11)  0.1178 ( 12)  0.1230 ( 20)
          -0.1513 ( 23)  0.1153 ( 25) -0.1117 ( 27) -0.1126 ( 30) -0.1126 ( 32)
           0.1114 ( 38)  0.1114 ( 43)  0.1210 ( 44)  0.1210 ( 46) -0.1245 ( 47)
          -0.1245 ( 48)  0.1721 ( 50)  0.1721 ( 51)  0.1721 ( 54)  0.1721 ( 62)
          -0.1529 ( 74) -0.1529 ( 75) -0.1529 ( 77) -0.1529 ( 80)  0.1239 ( 81)
          -0.1009 ( 82)  0.1239 ( 85) -0.1009 ( 86)  0.1306 ( 89)  0.1306 ( 91)
          -0.1354 (105)  0.1600 (116)  0.1238 (117) -0.1645 (119) -0.1227 (120)
           0.1102 (122)  0.1074 (128)  0.1357 (132) -0.1304 (146)  0.1309 (147)
          -0.1121 (150) -0.1147 (153)
 CRD 49=   0.2128 (  9)  0.2128 ( 10) -0.1390 ( 18) -0.1390 ( 19)  0.2909 (108)
          -0.1339 (112)  0.1030 (114) -0.1713 (115) -0.2060 (123) -0.1346 (124)
           0.1290 (125)  0.1451 (133)  0.1219 (134)  0.2227 (135) -0.3024 (136)
          -0.1525 (137)  0.1040 (139)  0.1800 (140)  0.2786 (141) -0.1298 (152)
          -0.2343 (160)
 CRD 50=  -0.1869 (  4)  0.2107 (  5)  0.2107 (  7) -0.1869 (  8)  0.1036 ( 11)
          -0.1697 ( 16) -0.1697 ( 17)  0.1221 ( 20)  0.2105 ( 22)  0.2105 ( 24)
          -0.1166 ( 25)  0.1120 ( 73)  0.1120 ( 76)  0.1149 (104)  0.1107 (105)
           0.1255 (110) -0.1405 (116) -0.1128 (119)  0.1008 (123)  0.1182 (132)
          -0.1518 (139) -0.1215 (141) -0.1272 (157)  0.1284 (159) -0.1279 (162)
 CRD 51=  -0.1452 (  9) -0.1452 ( 10) -0.1448 ( 16) -0.1448 ( 17)  0.2175 ( 18)
           0.2175 ( 19) -0.1029 ( 27) -0.1014 ( 35) -0.1014 ( 37) -0.1014 ( 41)
          -0.1014 ( 45)  0.1236 (106) -0.1258 (111)  0.2193 (113)  0.1329 (115)
          -0.2350 (123)  0.1032 (124) -0.1253 (126) -0.1567 (135)  0.1325 (139)
           0.2837 (141) -0.1275 (142)  0.1430 (145) -0.1687 (151)  0.1301 (155)
           0.2134 (156) -0.2249 (159)
 CRD 52=   0.1037 (  1)  0.1076 ( 12)  0.1005 ( 23) -0.1031 ( 55) -0.1031 ( 63)
           0.1661 ( 74)  0.1661 ( 75)  0.1661 ( 77)  0.1661 ( 80)  0.1193 ( 82)
           0.1193 ( 86)  0.1227 ( 90)  0.1227 ( 92)  0.1381 (118) -0.1395 (121)
           0.1421 (122)  0.1040 (126) -0.1805 (127)  0.1724 (143) -0.1686 (148)
          -0.1454 (153)  0.1795 (154) -0.1580 (156)  0.1009 (157)  0.1043 (158)
           0.1399 (160) -0.1068 (161) -0.1010 (162)  0.1517 (164) -0.1576 (165)
 CRD 53=   0.1001 ( 21)  0.1194 ( 53)  0.1194 ( 57)  0.1194 ( 59)  0.1194 ( 60)
           0.1204 ( 83)  0.1204 ( 84)  0.1204 ( 87)  0.1204 ( 88) -0.1012 (108)
          -0.1317 (113)  0.1193 (118) -0.1199 (121)  0.1260 (123)  0.1107 (127)
          -0.2235 (128) -0.1240 (141) -0.2548 (143)  0.2567 (148)  0.2232 (150)
          -0.1108 (154) -0.2853 (164)  0.2808 (165)
 CRD 54=   0.1816 (  9)  0.1816 ( 10)  0.1683 ( 18)  0.1683 ( 19) -0.1021 ( 36)
          -0.1021 ( 39) -0.1021 ( 40) -0.1021 ( 42)  0.2513 (107) -0.1548 (108)
          -0.2264 (113)  0.1849 (115) -0.1447 (122)  0.1795 (123) -0.2422 (126)
          -0.1474 (135)  0.1017 (136) -0.1427 (141)  0.1093 (143)  0.1442 (145)
          -0.1067 (148) -0.1484 (152)  0.1409 (153)  0.2596 (156)  0.1760 (159)
          -0.2672 (160)  0.1054 (164) -0.1078 (165)

 THE DETERMINANT OF THE G MATRIX IS 10**(   -15)


                     --------------------
                     INTERNAL COORDINATES
                     --------------------

                 - - ATOMS - -         COORDINATE      COORDINATE
 NO.   TYPE    I  J  K  L  M  N        (BOHR,RAD)       (ANG,DEG)
 ----------------------------------------------------------------
   1 STRETCH   1  3                     2.8620957       1.5145559
   2 STRETCH   1  6                     2.4870690       1.3161003
   3 STRETCH   1 13                     2.0493537       1.0844713
   4 STRETCH   2  3                     2.6717143       1.4138104
   5 STRETCH   2 11                     2.6660465       1.4108112
   6 STRETCH   2 14                     2.0440193       1.0816485
   7 STRETCH   2 11                     2.6660465       1.4108112
   8 STRETCH   2  3                     2.6717143       1.4138104
   9 STRETCH   3 10                     3.4900312       1.8468451
  10 STRETCH   3 10                     3.4900312       1.8468451
  11 STRETCH   3 15                     2.0539301       1.0868931
  12 STRETCH   4 11                     2.9156410       1.5428909
  13 STRETCH   4  6                     2.8576325       1.5121941
  14 STRETCH   4  5                     2.3107830       1.2228138
  15 STRETCH   6  7                     2.0450565       1.0821974
  16 STRETCH   8  9                     2.6695700       1.4126757
  17 STRETCH   8  9                     2.6695700       1.4126757
  18 STRETCH   8 11                     3.4791791       1.8411024
  19 STRETCH   8 11                     3.4791791       1.8411024
  20 STRETCH   8 17                     2.0526417       1.0862113
  21 STRETCH   8 16                     2.0515295       1.0856227
  22 STRETCH   9 10                     2.6671214       1.4113800
  23 STRETCH   9 18                     2.0434577       1.0813513
  24 STRETCH   9 10                     2.6671214       1.4113800
  25 STRETCH  10 20                     2.0521567       1.0859546
  26 STRETCH  10 19                     2.0510123       1.0853490
  27 STRETCH  11 12                     2.0545908       1.0872427
  28 BEND      1  3 10                  1.8193484     104.2409867
  29 BEND      1  3 10                  1.8193484     104.2409867
  30 BEND      1  3  2                  2.0044199     114.8448022
  31 BEND      1  3 15                  1.9764831     113.2441415
  32 BEND      1  3  2                  2.0044199     114.8448022
  33 BEND      1  6  7                  2.1331532     122.2206730
  34 BEND      1  6  4                  2.1156378     121.2171142
  35 BEND      2 11  8                  1.8097703     103.6921977
  36 BEND      2  3 10                  1.8045785     103.3947317
  37 BEND      2 11  8                  1.8097703     103.6921977
  38 BEND      2 11 12                  2.0423702     117.0191934
  39 BEND      2  3 10                  1.8045785     103.3947317
  40 BEND      2  3 10                  1.8045785     103.3947317
  41 BEND      2 11  8                  1.8097703     103.6921977
  42 BEND      2  3 10                  1.8045785     103.3947317
  43 BEND      2 11 12                  2.0423702     117.0191934
  44 BEND      2  3 15                  2.0359686     116.6524074
  45 BEND      2 11  8                  1.8097703     103.6921977
  46 BEND      2  3 15                  2.0359686     116.6524074
  47 BEND      2 11  4                  2.0289266     116.2489289
  48 BEND      2 11  4                  2.0289266     116.2489289
  49 BEND      3  2 14                  2.0905149     119.7776819
  50 BEND      3  2 11                  2.0247145     116.0075971
  51 BEND      3  2 11                  2.0247145     116.0075971
  52 BEND      3  2 14                  2.0905149     119.7776819
  53 BEND      3 10  9                  1.8350972     105.1433235
  54 BEND      3  2 11                  2.0247145     116.0075971
  55 BEND      3 10 19                  1.7284656      99.0337836
  56 BEND      3 10 20                  1.8216881     104.3750389
  57 BEND      3 10  9                  1.8350972     105.1433235
  58 BEND      3 10 20                  1.8216881     104.3750389
  59 BEND      3 10  9                  1.8350972     105.1433235
  60 BEND      3 10  9                  1.8350972     105.1433235
  61 BEND      3  1  6                  2.1221004     121.5873975
  62 BEND      3  2 11                  2.0247145     116.0075971
  63 BEND      3 10 19                  1.7284656      99.0337836
  64 BEND      3  1 13                  2.0431983     117.0666379
  65 BEND      4  6  7                  2.0342813     116.5557324
  66 BEND      4 11 12                  1.9559979     112.0704225
  67 BEND      4 11  8                  1.7953127     102.8638423
  68 BEND      4 11  8                  1.7953127     102.8638423
  69 BEND      5  4  6                  2.1477998     123.0598661
  70 BEND      5  4 11                  2.1358885     122.3773941
  71 BEND      6  4 11                  1.9994927     114.5624908
  72 BEND      6  1 13                  2.1178858     121.3459163
  73 BEND      8  9 18                  2.0628276     118.1913129
  74 BEND      8  9 10                  2.0659285     118.3689821
  75 BEND      8  9 10                  2.0659285     118.3689821
  76 BEND      8  9 18                  2.0628276     118.1913129
  77 BEND      8  9 10                  2.0659285     118.3689821
  78 BEND      8 11 12                  1.7854728     102.3000577
  79 BEND      8 11 12                  1.7854728     102.3000577
  80 BEND      8  9 10                  2.0659285     118.3689821
  81 BEND      9  8 16                  2.0427609     117.0415777
  82 BEND      9  8 17                  2.0393248     116.8447060
  83 BEND      9  8 11                  1.8492166     105.9523082
  84 BEND      9  8 11                  1.8492166     105.9523082
  85 BEND      9  8 16                  2.0427609     117.0415777
  86 BEND      9  8 17                  2.0393248     116.8447060
  87 BEND      9  8 11                  1.8492166     105.9523082
  88 BEND      9  8 11                  1.8492166     105.9523082
  89 BEND      9 10 19                  2.0461122     117.2335927
  90 BEND      9 10 20                  2.0386229     116.8044861
  91 BEND      9 10 19                  2.0461122     117.2335927
  92 BEND      9 10 20                  2.0386229     116.8044861
  93 BEND     10  3 15                  1.7820112     102.1017227
  94 BEND     10  9 18                  2.0640820     118.2631852
  95 BEND     10  9 18                  2.0640820     118.2631852
  96 BEND     10  3 15                  1.7820112     102.1017227
  97 BEND     11  2 14                  2.0895858     119.7244457
  98 BEND     11  2 14                  2.0895858     119.7244457
  99 BEND     11  8 16                  1.7224734      98.6904566
 100 BEND     11  8 17                  1.8167017     104.0893396
 101 BEND     11  8 16                  1.7224734      98.6904566
 102 BEND     11  8 17                  1.8167017     104.0893396
 103 BEND     16  8 17                  1.9440877     111.3880191
 104 BEND     19 10 20                  1.9445056     111.4119643
 105 TORSION   1  3 10  9               1.1065705      63.4018204
 106 TORSION   1  6  4  5               3.1256648     179.0873994
 107 TORSION   1  3  2 11              -0.7705836     -44.1511874
 108 TORSION   1  6  4 11              -0.0128246      -0.7347963
 109 TORSION   1  3 10 19              -3.0553770    -175.0602079
 110 TORSION   1  3 10 20              -1.0485427     -60.0770701
 111 TORSION   1  3  2 14               2.7868088     159.6723841
 112 TORSION   2  3  1 13              -2.7627496    -158.2938935
 113 TORSION   2  3  1  6               0.3802200      21.7850016
 114 TORSION   2 11  4  5               2.7762521     159.0675307
 115 TORSION   2 11  4  6              -0.3684201     -21.1089180
 116 TORSION   2  3 10 19               1.1264204      64.5391351
 117 TORSION   2  3 10 20               3.1332547     179.5222729
 118 TORSION   2  3 10  9              -0.9948174     -56.9988367
 119 TORSION   2 11  8 16              -1.1551126     -66.1830740
 120 TORSION   2 11  8 17               3.1252376     179.0629256
 121 TORSION   2 11  8  9               0.9649122      55.2853981
 122 TORSION   3  2 11  8              -1.1840066     -67.8385800
 123 TORSION   3  1  6  4               0.0045838       0.2626308
 124 TORSION   3  2 11 12              -3.1342041    -179.5766678
 125 TORSION   3  1  6  7              -3.1202856    -178.7791962
 126 TORSION   3  2 11  4               0.7718686      44.2248158
 127 TORSION   3 10  9 18              -1.6180995     -92.7102719
 128 TORSION   3 10  9  8               1.0721873      61.4318063
 129 TORSION   4  6  1 13              -3.1355732    -179.6551082
 130 TORSION   4 11  8 16               3.0074208     172.3125204
 131 TORSION   4 11  8 17               1.0045857      57.5585201
 132 TORSION   4 11  8  9              -1.1557397     -66.2190075
 133 TORSION   4 11  2 14              -2.7852893    -159.5853245
 134 TORSION   5  4 11  8              -1.5427398     -88.3924799
 135 TORSION   5  4 11 12               0.3626516      20.7784082
 136 TORSION   5  4  6  7              -0.0317444      -1.8188178
 137 TORSION   6  4 11  8               1.5957732      91.4310713
 138 TORSION   6  4 11 12              -2.7820206    -159.3980405
 139 TORSION   6  1  3 10              -1.5813373     -90.6039521
 140 TORSION   6  1  3 15               2.7794389     159.2501160
 141 TORSION   7  6  1 13               0.0227428       1.3030648
 142 TORSION   7  6  4 11               3.1129516     178.3589865
 143 TORSION   8  9 10 19              -0.8266951     -47.3661375
 144 TORSION   8  9 10 20               3.0818290     176.5757965
 145 TORSION   8 11  2 14               1.5420207      88.3512797
 146 TORSION   9 10  3 15              -3.1155823    -178.5097179
 147 TORSION   9  8 11 12               3.0962940     177.4045788
 148 TORSION  10  9  8 16               0.8376139      47.9917401
 149 TORSION  10  9  8 17              -3.0749428    -176.1812438
 150 TORSION  10  9  8 11              -1.0613860     -60.8129363
 151 TORSION  10  3  1 13               1.5588784      89.3171528
 152 TORSION  10  3  2 14              -1.5261085     -87.4395777
 153 TORSION  10  3  2 11               1.1996844      68.7368508
 154 TORSION  11  8  9 18               1.6292270      93.3478334
 155 TORSION  11  2  3 15               3.1394502     179.8772488
 156 TORSION  12 11  2 14              -0.4081768     -23.3868081
 157 TORSION  12 11  8 16               0.9762692      55.9361067
 158 TORSION  12 11  8 17              -1.0265659     -58.8178937
 159 TORSION  13  1  3 15              -0.3635308     -20.8287791
 160 TORSION  14  2  3 15               0.4136573      23.7008202
 161 TORSION  15  3 10 20               1.0124898      58.0113917
 162 TORSION  15  3 10 19              -0.9943446     -56.9717461
 163 TORSION  16  8  9 18              -2.7549584    -157.8474902
 164 TORSION  17  8  9 18              -0.3843298     -22.0204741
 165 TORSION  18  9 10 20               0.3915422      22.4337183
 166 TORSION  18  9 10 19               2.7662035     158.4917843

     ------------------------------------------
     THE POINT GROUP IS C1 , NAXIS= 0, ORDER= 1
     ------------------------------------------

     DIMENSIONS OF THE SYMMETRY SUBSPACES ARE
 A   =   60

 ..... DONE SETTING UP THE RUN .....
 STEP CPU TIME =     0.12 TOTAL CPU TIME =          0.1 (      0.0 MIN)
 TOTAL WALL CLOCK TIME=          0.1 SECONDS, CPU UTILIZATION IS    92.31%

          -----------------------------
          INTRINSIC REACTION COORDINATE
          -----------------------------
          PACE   =GS2     
          STRIDE = 0.20000 BOHR*SQRT(AMU)
          NPOINT =      50
          NEXTPT =       0
          STOTAL =  0.0000 BOHR*SQRT(AMU)
          SAB    =  0.0000 BOHR*SQRT(AMU)
          NPRT   =       0
          NPUN   =       0

          SADDLE =       T
          TSENGY =       T
          FORWRD =       F
          EVIB   = 0.00050 HARTREE
          FREQ   =     0.0 CM**-1

          STABLZ =       F
          ELBOW  =  175.00 DEGREES
          DELTA  = 0.02500 BOHR

          READQB =       F
          EB     =        0.0000000000 HARTREES
          GBNORM =        0.0000000000 HARTREES/SQRT(AMU)-BOHR

          GCUT   = 0.0000667 HARTREES/SQRT(AMU)-BOHR
          RCUT   = 0.0006667 BOHR
          ACUT   =    5.00 DEGREES
          MXOPT  =      20
          IHUPD  =       2

 ATOMIC MASSES USED (IN AMU) ARE
     C             12.0000
     C             12.0000
     C             12.0000
     C             12.0000
     O             15.9949
     C             12.0000
     H              1.0078
     C             12.0000
     C             12.0000
     C             12.0000
     C             12.0000
     H              1.0078
     H              1.0078
     H              1.0078
     H              1.0078
     H              1.0078
     H              1.0078
     H              1.0078
     H              1.0078
     H              1.0078

 JUMP AWAY FROM SADDLE POINT WILL BE FOUND FROM THE INPUT HESSIAN MATRIX

 COMPUTING WAVEFUNCTION AT TRANSITION STATE...

          ********************
          1 ELECTRON INTEGRALS
          ********************
 ...... END OF ONE-ELECTRON INTEGRALS ......
 STEP CPU TIME =     0.02 TOTAL CPU TIME =          0.1 (      0.0 MIN)
 TOTAL WALL CLOCK TIME=          0.2 SECONDS, CPU UTILIZATION IS    87.50%

          -------------
          GUESS OPTIONS
          -------------
          GUESS =HUCKEL            NORB  =       0          NORDER=       0
          MIX   =       F          PRTMO =       F          PUNMO =       F
          TOLZ  = 1.0E-08          TOLE  = 1.0E-05
          SYMDEN=       F          PURIFY=       F

 INITIAL GUESS ORBITALS GENERATED BY HUCKEL   ROUTINE.
 HUCKEL GUESS REQUIRES     53820 WORDS.

 SYMMETRIES FOR INITIAL GUESS ORBITALS FOLLOW.   BOTH SET(S).
    36 ORBITALS ARE OCCUPIED (   10 CORE ORBITALS).
    11=A       12=A       13=A       14=A       15=A       16=A       17=A   
    18=A       19=A       20=A       21=A       22=A       23=A       24=A   
    25=A       26=A       27=A       28=A       29=A       30=A       31=A   
    32=A       33=A       34=A       35=A       36=A       37=A       38=A   
    39=A       40=A       41=A       42=A       43=A       44=A       45=A   
    46=A   
 ...... END OF INITIAL ORBITAL SELECTION ......
 STEP CPU TIME =     0.01 TOTAL CPU TIME =          0.2 (      0.0 MIN)
 TOTAL WALL CLOCK TIME=          0.2 SECONDS, CPU UTILIZATION IS    83.33%

                    ----------------------
                    AO INTEGRAL TECHNOLOGY
                    ----------------------
     S,P,L SHELL ROTATED AXIS INTEGRALS, REPROGRAMMED BY
        KAZUYA ISHIMURA (IMS) AND JOSE SIERRA (SYNSTAR).
     S,P,D,L SHELL ROTATED AXIS INTEGRALS PROGRAMMED BY
        KAZUYA ISHIMURA (INSTITUTE FOR MOLECULAR SCIENCE).
     S,P,D,F,G SHELL TO TOTAL QUARTET ANGULAR MOMENTUM SUM 5,
        ERIC PROGRAM BY GRAHAM FLETCHER (ELORET AND NASA ADVANCED
        SUPERCOMPUTING DIVISION, AMES RESEARCH CENTER).
     S,P,D,F,G,L SHELL GENERAL RYS QUADRATURE PROGRAMMED BY
        MICHEL DUPUIS (PACIFIC NORTHWEST NATIONAL LABORATORY).

          --------------------
          2 ELECTRON INTEGRALS
          --------------------

 THE -PK- OPTION IS OFF, THE INTEGRALS ARE NOT IN SUPERMATRIX FORM.
 STORING   15000 INTEGRALS/RECORD ON DISK, USING 12 BYTES/INTEGRAL.
 TWO ELECTRON INTEGRAL EVALUATION REQUIRES   89821 WORDS OF MEMORY.
 SCHWARZ INEQUALITY OVERHEAD:      1797 INTEGRALS, T=        0.00
 II,JST,KST,LST =  1  1  1  1 NREC =         1 INTLOC =    1
 II,JST,KST,LST =  2  1  1  1 NREC =         1 INTLOC =    2
 II,JST,KST,LST =  3  1  1  1 NREC =         1 INTLOC =   34
 II,JST,KST,LST =  4  1  1  1 NREC =         1 INTLOC =  124
 II,JST,KST,LST =  5  1  1  1 NREC =         1 INTLOC = 1312
 II,JST,KST,LST =  6  1  1  1 NREC =         1 INTLOC = 1933
 II,JST,KST,LST =  7  1  1  1 NREC =         1 INTLOC = 6834
 II,JST,KST,LST =  8  1  1  1 NREC =         1 INTLOC = 8448
 II,JST,KST,LST =  9  1  1  1 NREC =         2 INTLOC = 5848
 II,JST,KST,LST = 10  1  1  1 NREC =         2 INTLOC = 9134
 II,JST,KST,LST = 11  1  1  1 NREC =         4 INTLOC =  859
 II,JST,KST,LST = 12  1  1  1 NREC =         4 INTLOC = 7761
 II,JST,KST,LST = 13  1  1  1 NREC =         7 INTLOC = 6684
 II,JST,KST,LST = 14  1  1  1 NREC =         8 INTLOC = 5763
 II,JST,KST,LST = 15  1  1  1 NREC =         9 INTLOC = 1689
 II,JST,KST,LST = 16  1  1  1 NREC =        14 INTLOC = 3147
 II,JST,KST,LST = 17  1  1  1 NREC =        15 INTLOC = 4693
 II,JST,KST,LST = 18  1  1  1 NREC =        22 INTLOC =14166
 II,JST,KST,LST = 19  1  1  1 NREC =        24 INTLOC = 8051
 II,JST,KST,LST = 20  1  1  1 NREC =        35 INTLOC = 2010
 II,JST,KST,LST = 21  1  1  1 NREC =        37 INTLOC =11375
 II,JST,KST,LST = 22  1  1  1 NREC =        53 INTLOC =  681
 II,JST,KST,LST = 23  1  1  1 NREC =        57 INTLOC = 6677
 II,JST,KST,LST = 24  1  1  1 NREC =        61 INTLOC =14773
 II,JST,KST,LST = 25  1  1  1 NREC =        66 INTLOC =12727
 II,JST,KST,LST = 26  1  1  1 NREC =        71 INTLOC =13495
 II,JST,KST,LST = 27  1  1  1 NREC =        77 INTLOC = 4944
 II,JST,KST,LST = 28  1  1  1 NREC =        83 INTLOC = 1746
 II,JST,KST,LST = 29  1  1  1 NREC =        89 INTLOC = 4249
 II,JST,KST,LST = 30  1  1  1 NREC =        95 INTLOC = 7120
 SCHWARZ INEQUALITY TEST SKIPPED       22807 INTEGRAL BLOCKS.
 TOTAL NUMBER OF NONZERO TWO-ELECTRON INTEGRALS =             1514800
        101 INTEGRAL RECORDS WERE STORED ON DISK FILE  8.
  ...... END OF TWO-ELECTRON INTEGRALS .....
 STEP CPU TIME =     0.30 TOTAL CPU TIME =          0.4 (      0.0 MIN)
 TOTAL WALL CLOCK TIME=          0.5 SECONDS, CPU UTILIZATION IS    95.74%

          --------------------------
                 RHF SCF CALCULATION
          --------------------------

     NUCLEAR ENERGY =       517.4269081560
     MAXIT =   30     NPUNCH=    2
     EXTRAP=T  DAMP=F  SHIFT=F  RSTRCT=F  DIIS=F  DEM=F  SOSCF=T
     DENSITY MATRIX CONV=  1.00E-05
     SOSCF WILL OPTIMIZE     864 ORBITAL ROTATIONS, SOGTOL=   0.250
     MEMORY REQUIRED FOR RHF ITERS=     59496 WORDS.

 ITER EX DEM     TOTAL ENERGY        E CHANGE  DENSITY CHANGE     ORB. GRAD
   1  0  0     -415.5342937961  -415.5342937961   0.524541284   0.000000000
          ---------------START SECOND ORDER SCF---------------
   2  1  0     -416.0541281632    -0.5198343670   0.284772772   0.062380073
   3  2  0     -416.0859747145    -0.0318465513   0.144907081   0.050365450
   4  3  0     -416.1182824899    -0.0323077754   0.021656336   0.007331020
   5  4  0     -416.1190810203    -0.0007985304   0.005519879   0.002497857
   6  5  0     -416.1191803570    -0.0000993367   0.001821935   0.000725193
   7  6  0     -416.1191926671    -0.0000123101   0.000695560   0.000228309
   8  7  0     -416.1191943481    -0.0000016811   0.000274417   0.000075535
   9  8  0     -416.1191945857    -0.0000002376   0.000189247   0.000023096
  10  9  0     -416.1191946363    -0.0000000506   0.000068656   0.000011775
  11 10  0     -416.1191946431    -0.0000000067   0.000030994   0.000006478
  12 11  0     -416.1191946442    -0.0000000011   0.000008012   0.000002033
  13 12  0     -416.1191946443    -0.0000000002   0.000003104   0.000000578

          -----------------
          DENSITY CONVERGED
          -----------------
     TIME TO FORM FOCK OPERATORS=       0.3 SECONDS (       0.0 SEC/ITER)
     TIME TO SOLVE SCF EQUATIONS=       0.1 SECONDS (       0.0 SEC/ITER)

 FINAL RHF ENERGY IS     -416.1191946443 AFTER  13 ITERATIONS

          ------------
          EIGENVECTORS
          ------------

                      1          2          3          4          5
                  -20.2639   -11.1178   -11.0610   -11.0529   -11.0501
                     A          A          A          A          A   
    1  C  1  S    0.000005  -0.000254  -0.008646  -0.003899   0.000799
    2  C  1  S    0.000055   0.000112  -0.006259  -0.000218   0.000037
    3  C  1  X    0.000075  -0.000092   0.004193   0.000115  -0.000000
    4  C  1  Y   -0.000005  -0.000020  -0.000775   0.000134  -0.000015
    5  C  1  Z    0.000010  -0.000002   0.000668  -0.000037  -0.000012
    6  C  2  S    0.000004  -0.000244   0.002412   0.003033  -0.000879
    7  C  2  S    0.000031   0.000076  -0.006795  -0.006850  -0.000772
    8  C  2  X   -0.000066  -0.000005  -0.002925  -0.000884  -0.000060
    9  C  2  Y   -0.000028  -0.000008  -0.002329   0.004356   0.000397
   10  C  2  Z   -0.000015  -0.000025   0.002615  -0.000911   0.000037
   11  C  3  S    0.000003  -0.000295   0.991766   0.005271   0.000024
   12  C  3  S    0.000005  -0.000075   0.036501   0.000275   0.000142
   13  C  3  X   -0.000006  -0.000059  -0.000202  -0.000037  -0.000027
   14  C  3  Y    0.000041   0.000077  -0.000036   0.000198  -0.000004
   15  C  3  Z   -0.000009  -0.000052   0.001346   0.000023  -0.000015
   16  C  4  S    0.000547   0.992579   0.000310   0.002919   0.000969
   17  C  4  S   -0.007207   0.032614  -0.000002  -0.005564  -0.000611
   18  C  4  X   -0.001676   0.000301  -0.000023   0.004008   0.000345
   19  C  4  Y    0.005363  -0.000366  -0.000121  -0.000967  -0.000007
   20  C  4  Z   -0.003039   0.000171   0.000092   0.000703   0.000187
   21  O  5  S    0.994266   0.000159   0.000006  -0.000019  -0.000016
   22  O  5  S    0.026004  -0.005799  -0.000057   0.000226   0.000105
   23  O  5  X   -0.001471   0.000428   0.000015  -0.000213  -0.000058
   24  O  5  Y    0.004717  -0.001444  -0.000031   0.000066   0.000027
   25  O  5  Z   -0.002678   0.000827   0.000012  -0.000020  -0.000059
   26  C  6  S   -0.000025  -0.001018  -0.000724  -0.001016   0.000091
   27  C  6  S    0.000272  -0.005675   0.000234   0.000134   0.000043
   28  C  6  X    0.000263   0.002581  -0.000132   0.000012  -0.000022
   29  C  6  Y   -0.000377   0.002910   0.000040   0.000031  -0.000039
   30  C  6  Z    0.000230  -0.001351   0.000003   0.000017  -0.000010
   31  H  7  S   -0.000192   0.000010  -0.000038  -0.000069  -0.000007
   32  C  8  S   -0.000011  -0.000570   0.000115  -0.102513   0.986628
   33  C  8  S    0.000053   0.000026   0.000088  -0.007210   0.035957
   34  C  8  X    0.000066  -0.000396  -0.000013  -0.000440   0.000003
   35  C  8  Y   -0.000019  -0.000009   0.000013  -0.001339  -0.000204
   36  C  8  Z    0.000027  -0.000115  -0.000014  -0.002644  -0.001427
   37  C  9  S    0.000002  -0.000204  -0.000734  -0.000997   0.002192
   38  C  9  S   -0.000028  -0.000024   0.000126   0.000680  -0.006602
   39  C  9  X   -0.000002  -0.000067  -0.000054  -0.000353   0.002631
   40  C  9  Y    0.000001  -0.000028   0.000156  -0.000311   0.002340
   41  C  9  Z   -0.000005  -0.000158  -0.000115   0.000285  -0.002839
   42  C 10  S   -0.000001   0.000048  -0.021465   0.000435  -0.018321
   43  C 10  S    0.000007   0.000029  -0.004203   0.000053  -0.000562
   44  C 10  X   -0.000001   0.000019  -0.000475  -0.000030   0.000094
   45  C 10  Y   -0.000003  -0.000016  -0.001264  -0.000029   0.000045
   46  C 10  Z    0.000002   0.000038  -0.002746  -0.000017  -0.000101
   47  C 11  S   -0.000024  -0.002011  -0.005223   0.986649   0.103486
   48  C 11  S    0.000266  -0.005322  -0.000127   0.036392   0.000378
   49  C 11  X    0.000015  -0.003740  -0.000132  -0.000163   0.000397
   50  C 11  Y   -0.000388   0.001006  -0.000055   0.000998   0.001466
   51  C 11  Z    0.000259  -0.000989   0.000142   0.000377   0.002796
   52  H 12  S   -0.000169  -0.000026  -0.000087  -0.006936  -0.000578
   53  H 13  S   -0.000021  -0.000037   0.000143  -0.000029  -0.000007
   54  H 14  S   -0.000021  -0.000046   0.000093   0.000080   0.000085
   55  H 15  S   -0.000016  -0.000024  -0.006950  -0.000162  -0.000024
   56  H 16  S    0.000017  -0.000171   0.000005   0.000773  -0.006890
   57  H 17  S   -0.000024  -0.000255  -0.000005   0.000834  -0.006873
   58  H 18  S    0.000025  -0.000144   0.000041   0.000035   0.000072
   59  H 19  S   -0.000001  -0.000002   0.000217   0.000007   0.000096
   60  H 20  S   -0.000000   0.000004   0.000265   0.000005   0.000017

                      6          7          8          9         10
                  -11.0480   -11.0468   -11.0252   -11.0112   -11.0015
                     A          A          A          A          A   
    1  C  1  S   -0.035331   0.991329  -0.021229   0.001073   0.000781
    2  C  1  S   -0.001441   0.035824  -0.009002   0.000134  -0.000063
    3  C  1  X   -0.000002   0.000502  -0.001366   0.000056   0.000074
    4  C  1  Y    0.000123  -0.001411   0.003872   0.000064   0.000180
    5  C  1  Z    0.000059   0.000796  -0.002296  -0.000150   0.000110
    6  C  2  S   -0.001222  -0.001051  -0.002155   0.992118   0.003255
    7  C  2  S   -0.000232  -0.000001  -0.000184   0.036452   0.000153
    8  C  2  X    0.000025  -0.000105  -0.000210   0.000425   0.000005
    9  C  2  Y    0.000068   0.000026   0.000053  -0.001199   0.000069
   10  C  2  Z    0.000109  -0.000071  -0.000035  -0.001948   0.000129
   11  C  3  S    0.022090   0.010446   0.000552  -0.001595   0.000777
   12  C  3  S   -0.002370  -0.005400   0.000387  -0.006974  -0.000009
   13  C  3  X    0.000566  -0.003916   0.000159   0.002983  -0.000063
   14  C  3  Y    0.001234   0.000867   0.000078   0.002217   0.000402
   15  C  3  Z    0.002820  -0.000833   0.000025  -0.002656  -0.000056
   16  C  4  S   -0.000045   0.000346   0.002009   0.000302   0.000261
   17  C  4  S   -0.000005   0.000082  -0.005874   0.000126  -0.000058
   18  C  4  X    0.000000   0.000094  -0.002758  -0.000020   0.000016
   19  C  4  Y    0.000012  -0.000133  -0.002870  -0.000141  -0.000033
   20  C  4  Z   -0.000026   0.000076   0.001295  -0.000033   0.000206
   21  O  5  S   -0.000001   0.000012  -0.000022   0.000009   0.000001
   22  O  5  S    0.000011  -0.000111   0.000250  -0.000082  -0.000029
   23  O  5  X   -0.000001  -0.000004   0.000135   0.000027   0.000004
   24  O  5  Y    0.000005  -0.000055   0.000163  -0.000019  -0.000029
   25  O  5  Z   -0.000003   0.000030  -0.000072   0.000038  -0.000025
[...]
                    0.9327     0.9447     1.0498     1.0728     1.1312
                     A          A          A          A          A   
    1  C  1  S    0.053640   0.010242  -0.018831   0.059707   0.064979
    2  C  1  S   -0.418745  -0.087024   0.149916  -0.508260  -0.530085
    3  C  1  X   -0.595279  -0.170773   0.028108  -0.345579   0.065696
    4  C  1  Y    0.267554   0.012620  -0.129513   0.570339   0.470294
    5  C  1  Z   -0.179040  -0.031123   0.102910  -0.485346  -0.365918
    6  C  2  S    0.054064   0.004697   0.019101  -0.058663   0.065746
    7  C  2  S   -0.421801  -0.043050  -0.156826   0.499343  -0.537051
    8  C  2  X    0.295524   0.191805  -0.064785   0.134882  -0.378297
    9  C  2  Y    0.395977   0.030001   0.135835  -0.595295   0.418948
   10  C  2  Z   -0.456400  -0.120495  -0.120904   0.541507  -0.235260
   11  C  3  S    0.083612   0.020770   0.004400   0.000101  -0.011228
   12  C  3  S   -0.549231  -0.132692  -0.025873  -0.000027   0.069430
   13  C  3  X   -0.042190  -0.007060  -0.008971  -0.339100   0.092738
   14  C  3  Y   -0.051071   0.156974   0.029547  -0.045890  -0.238524
   15  C  3  Z   -0.138215  -0.089334   0.015143   0.111804   0.171978
   16  C  4  S   -0.037588  -0.028327  -0.001735  -0.000507  -0.029592
   17  C  4  S    0.253641   0.189157   0.012590   0.003657   0.208106
   18  C  4  X   -0.096807   0.013946  -0.068591   0.355712   0.219680
   19  C  4  Y    0.398802  -0.075556  -0.035015   0.039778  -0.740379
   20  C  4  Z   -0.128281   0.033733   0.035798  -0.103896   0.365887
   21  O  5  S   -0.022352   0.014236   0.002438   0.001052   0.065317
   22  O  5  S    0.170666  -0.103196  -0.018503  -0.008057  -0.504810
   23  O  5  X   -0.044961   0.030603   0.016680  -0.057041   0.122012
   24  O  5  Y    0.153146  -0.102824  -0.015981  -0.016230  -0.467897
   25  O  5  Z   -0.071965   0.041388   0.002528   0.021058   0.172671
   26  C  6  S   -0.062023  -0.010180   0.012322  -0.056968  -0.062104
   27  C  6  S    0.480746   0.078740  -0.103878   0.487190   0.503435
   28  C  6  X    0.406077   0.049703   0.050166  -0.146750  -0.530713
   29  C  6  Y    0.419000   0.104468  -0.148330   0.665234   0.393309
   30  C  6  Z   -0.369635  -0.077307   0.113131  -0.489680  -0.282428
   31  H  7  S   -0.362020  -0.040575  -0.030829   0.075611   0.240171
   32  C  8  S   -0.001757   0.007686   0.110280   0.023012  -0.001569
   33  C  8  S    0.012033  -0.052903  -0.890415  -0.188357   0.014649
   34  C  8  X    0.138202  -0.663864  -0.742897  -0.151261   0.030988
   35  C  8  Y   -0.111191   0.593694  -0.794415  -0.173090   0.002569
   36  C  8  Z   -0.036892   0.181985   0.193913   0.039367  -0.009033
   37  C  9  S    0.006229  -0.014408  -0.104050  -0.020791  -0.001189
   38  C  9  S   -0.048719   0.126939   0.847418   0.170919   0.004134
   39  C  9  X   -0.120207   0.613007  -0.810616  -0.189880  -0.001867
   40  C  9  Y    0.118077  -0.644847  -0.807405  -0.164498   0.052090
   41  C  9  Z    0.027881  -0.173312   0.201568   0.049142  -0.001700
   42  C 10  S   -0.006914  -0.057650  -0.012084  -0.001464  -0.003836
   43  C 10  S    0.041644   0.376721   0.079056   0.009280   0.024370
   44  C 10  X    0.019860  -0.088515   0.323857   0.150061  -0.015643
   45  C 10  Y    0.102491  -0.403184  -0.036047   0.008892   0.076292
   46  C 10  Z    0.029202   0.026521  -0.070093  -0.042286   0.003413
   47  C 11  S   -0.062237  -0.007164  -0.015016   0.055886  -0.063169
   48  C 11  S    0.481934   0.055785   0.124917  -0.478432   0.512464
   49  C 11  X   -0.631127  -0.142775  -0.059291   0.333781   0.157261
   50  C 11  Y    0.272185   0.037380   0.170292  -0.630789   0.503701
   51  C 11  Z   -0.046425   0.029220  -0.124850   0.419978  -0.503615
   52  H 12  S   -0.359734  -0.089161   0.037899  -0.068648   0.241862
   53  H 13  S    0.259709   0.098180   0.023516  -0.056628  -0.144054
   54  H 14  S    0.256314   0.147192  -0.021633   0.052346  -0.145567
   55  H 15  S    0.199751  -0.056866  -0.009289  -0.001017   0.123521
   56  H 16  S    0.119584  -0.572999  -0.103676  -0.018615   0.018457
   57  H 17  S   -0.114639   0.586331  -0.099956  -0.025470  -0.008477
   58  H 18  S    0.129232  -0.614793   0.138508   0.045783   0.008574
   59  H 19  S   -0.029005  -0.128966   0.186366   0.089878  -0.026186
   60  H 20  S   -0.060603   0.063135  -0.147392  -0.075594  -0.025035


                     --------------------
                     INTERNAL COORDINATES
                     --------------------

                 - - ATOMS - -         COORDINATE      COORDINATE
 NO.   TYPE    I  J  K  L  M  N        (BOHR,RAD)       (ANG,DEG)
 ----------------------------------------------------------------
   1 STRETCH   1  3                     2.8824146       1.5253082
   2 STRETCH   1  6                     2.4816681       1.3132423
   3 STRETCH   1 13                     2.0495993       1.0846013
   4 STRETCH   2  3                     2.8811417       1.5246346
   5 STRETCH   2 11                     2.4814931       1.3131497
   6 STRETCH   2 14                     2.0494433       1.0845188
   7 STRETCH   2 11                     2.4814931       1.3131497
   8 STRETCH   2  3                     2.8811417       1.5246346
   9 STRETCH   3 10                     2.9673766       1.5702682
  10 STRETCH   3 10                     2.9673766       1.5702682
  11 STRETCH   3 15                     2.0627197       1.0915444
  12 STRETCH   4 11                     2.8592874       1.5130698
  13 STRETCH   4  6                     2.8599944       1.5134440
  14 STRETCH   4  5                     2.3159208       1.2255326
  15 STRETCH   6  7                     2.0459299       1.0826595
  16 STRETCH   8  9                     2.4734936       1.3089165
  17 STRETCH   8  9                     2.4734936       1.3089165
  18 STRETCH   8 11                     6.5630495       3.4730165
  19 STRETCH   8 11                     6.5630495       3.4730165
  20 STRETCH   8 17                     2.0434139       1.0813282
  21 STRETCH   8 16                     2.0440322       1.0816553
  22 STRETCH   9 10                     2.8840434       1.5261702
  23 STRETCH   9 18                     2.0485479       1.0840449
  24 STRETCH   9 10                     2.8840434       1.5261702
  25 STRETCH  10 20                     2.0576784       1.0888766
  26 STRETCH  10 19                     2.0563767       1.0881877
  27 STRETCH  11 12                     2.0459088       1.0826484
  28 BEND      1  3 10                  1.9242696     110.2525272
  29 BEND      1  3 10                  1.9242696     110.2525272
  30 BEND      1  3  2                  1.9463485     111.5175533
  31 BEND      1  3 15                  1.9047841     109.1360876
  32 BEND      1  3  2                  1.9463485     111.5175533
  33 BEND      1  6  7                  2.1295136     122.0121406
  34 BEND      1  6  4                  2.1163630     121.2586685
  35 BEND      2 11  8                  1.3001186      74.4913114
  36 BEND      2  3 10                  1.9141273     109.6714148
  37 BEND      2 11  8                  1.3001186      74.4913114
  38 BEND      2 11 12                  2.1303472     122.0599046
  39 BEND      2  3 10                  1.9141273     109.6714148
  40 BEND      2  3 10                  1.9141273     109.6714148
  41 BEND      2 11  8                  1.3001186      74.4913114
  42 BEND      2  3 10                  1.9141273     109.6714148
  43 BEND      2 11 12                  2.1303472     122.0599046
  44 BEND      2  3 15                  1.9035800     109.0671022
  45 BEND      2 11  8                  1.3001186      74.4913114
  46 BEND      2  3 15                  1.9035800     109.0671022
  47 BEND      2 11  4                  2.1149515     121.1777956
  48 BEND      2 11  4                  2.1149515     121.1777956
  49 BEND      3  2 14                  2.0248031     116.0126722
  50 BEND      3  2 11                  2.1431169     122.7915525
  51 BEND      3  2 11                  2.1431169     122.7915525
  52 BEND      3  2 14                  2.0248031     116.0126722
  53 BEND      3 10  9                  1.9655744     112.6191172
  54 BEND      3  2 11                  2.1431169     122.7915525
  55 BEND      3 10 19                  1.8895816     108.2650481
  56 BEND      3 10 20                  1.8933085     108.4785843
  57 BEND      3 10  9                  1.9655744     112.6191172
  58 BEND      3 10 20                  1.8933085     108.4785843
  59 BEND      3 10  9                  1.9655744     112.6191172
  60 BEND      3 10  9                  1.9655744     112.6191172
  61 BEND      3  1  6                  2.1413743     122.6917079
  62 BEND      3  2 11                  2.1431169     122.7915525
  63 BEND      3 10 19                  1.8895816     108.2650481
  64 BEND      3  1 13                  2.0267639     116.1250157
  65 BEND      4  6  7                  2.0372031     116.7231395
  66 BEND      4 11 12                  2.0378271     116.7588908
  67 BEND      4 11  8                  1.4954633      85.6837339
  68 BEND      4 11  8                  1.4954633      85.6837339
  69 BEND      5  4  6                  2.1448512     122.8909191
  70 BEND      5  4 11                  2.1463086     122.9744267
  71 BEND      6  4 11                  1.9920104     114.1337895
  72 BEND      6  1 13                  2.1138746     121.1160906
  73 BEND      8  9 18                  2.0916648     119.8435627
  74 BEND      8  9 10                  2.1750664     124.6221247
  75 BEND      8  9 10                  2.1750664     124.6221247
  76 BEND      8  9 18                  2.0916648     119.8435627
  77 BEND      8  9 10                  2.1750664     124.6221247
  78 BEND      8 11 12                  1.9220080     110.1229484
  79 BEND      8 11 12                  1.9220080     110.1229484
  80 BEND      8  9 10                  2.1750664     124.6221247
  81 BEND      9  8 16                  2.1341584     122.2782713
  82 BEND      9  8 17                  2.1282855     121.9417751
  83 BEND      9  8 11                  1.3499468      77.3462545
  84 BEND      9  8 11                  1.3499468      77.3462545
  85 BEND      9  8 16                  2.1341584     122.2782713
  86 BEND      9  8 17                  2.1282855     121.9417751
  87 BEND      9  8 11                  1.3499468      77.3462545
  88 BEND      9  8 11                  1.3499468      77.3462545
  89 BEND      9 10 19                  1.9195444     109.9817923
  90 BEND      9 10 20                  1.9132520     109.6212626
  91 BEND      9 10 19                  1.9195444     109.9817923
  92 BEND      9 10 20                  1.9132520     109.6212626
  93 BEND     10  3 15                  1.8689608     107.0835681
  94 BEND     10  9 18                  2.0160380     115.5104706
  95 BEND     10  9 18                  2.0160380     115.5104706
  96 BEND     10  3 15                  1.8689608     107.0835681
  97 BEND     11  2 14                  2.1137416     121.1084707
  98 BEND     11  2 14                  2.1137416     121.1084707
  99 BEND     11  8 16                  1.3770103      78.8968796
 100 BEND     11  8 17                  2.0148590     115.4429195
 101 BEND     11  8 16                  1.3770103      78.8968796
 102 BEND     11  8 17                  2.0148590     115.4429195
 103 BEND     16  8 17                  2.0207352     115.7796009
 104 BEND     19 10 20                  1.8804127     107.7397098
 105 TORSION   1  3 10  9               1.0026151      57.4456163
 106 TORSION   1  6  4  5               2.8191521     161.5255174
 107 TORSION   1  3  2 11              -0.3804079     -21.7957661
 108 TORSION   1  6  4 11              -0.3166920     -18.1451161
 109 TORSION   1  3 10 19               3.1288899     179.2721875
 110 TORSION   1  3 10 20              -1.1183070     -64.0742690
 111 TORSION   1  3  2 14               2.8199481     161.5711264
 112 TORSION   2  3  1 13              -2.8182972    -161.4765322
 113 TORSION   2  3  1  6               0.3748401      21.4767556
 114 TORSION   2 11  4  5              -2.8243956    -161.8259470
 115 TORSION   2 11  4  6               0.3114431      17.8443754
 116 TORSION   2  3 10 19               0.9792094      56.1045664
 117 TORSION   2  3 10 20               3.0151978     172.7581099
 118 TORSION   2  3 10  9              -1.1470654     -65.7220048
 119 TORSION   2 11  8 16              -1.2202916     -69.9175579
 120 TORSION   2 11  8 17               3.0833698     176.6640764
 121 TORSION   2 11  8  9               0.9962898      57.0832032
 122 TORSION   3  2 11  8              -1.2632993     -72.3817185
 123 TORSION   3  1  6  4              -0.0351614      -2.0145986
 124 TORSION   3  2 11 12              -3.0841810    -176.7105547
 125 TORSION   3  1  6  7               3.0902977     177.0610171
 126 TORSION   3  2 11  4               0.0453063       2.5958614
 127 TORSION   3 10  9 18              -1.4785490     -84.7146158
 128 TORSION   3 10  9  8               1.6318677      93.4991313
 129 TORSION   4  6  1 13              -3.1226956    -178.9172787
 130 TORSION   4 11  8 16               2.8980389     166.0453976
 131 TORSION   4 11  8 17               0.9185150      52.6270320
 132 TORSION   4 11  8  9              -1.1685650     -66.9538412
 133 TORSION   4 11  2 14               3.1252146     179.0616092
 134 TORSION   5  4 11  8              -1.6208841     -92.8698168
 135 TORSION   5  4 11 12               0.3057075      17.5157480
 136 TORSION   5  4  6  7              -0.3071245     -17.5969366
 137 TORSION   6  4 11  8               1.5149546      86.8005056
 138 TORSION   6  4 11 12              -2.8416391    -162.8139296
 139 TORSION   6  1  3 10              -1.7559259    -100.6071459
 140 TORSION   6  1  3 15               2.4790683     142.0401499
 141 TORSION   7  6  1 13               0.0027635       0.1583370
 142 TORSION   7  6  4 11               2.8402167     162.7324299
 143 TORSION   8  9 10 19              -0.4773442     -27.3498083
 144 TORSION   8  9 10 20              -2.5417695    -145.6326628
 145 TORSION   8 11  2 14               1.8166090     104.0840293
 146 TORSION   9 10  3 15               3.0728561     176.0616846
 147 TORSION   9  8 11 12               3.0734529     176.0958789
 148 TORSION  10  9  8 16               0.0281138       1.6108019
 149 TORSION  10  9  8 17              -3.1174099    -178.6144280
 150 TORSION  10  9  8 11              -1.1580097     -66.3490697
 151 TORSION  10  3  1 13               1.3341221      76.4395663
 152 TORSION  10  3  2 14              -1.3266328     -76.0104580
 153 TORSION  10  3  2 11               1.7561965     100.6226495
 154 TORSION  11  8  9 18               1.9511442     111.7923297
 155 TORSION  11  2  3 15              -2.4853416    -142.3995834
 156 TORSION  12 11  2 14              -0.0042727      -0.2448069
 157 TORSION  12 11  8 16               0.8568715      49.0951177
 158 TORSION  12 11  8 17              -1.1226525     -64.3232479
 159 TORSION  13  1  3 15              -0.7140690     -40.9131379
 160 TORSION  14  2  3 15               0.7150144      40.9673091
 161 TORSION  15  3 10 20               0.9519340      54.5417993
 162 TORSION  15  3 10 19              -1.0840544     -62.1117442
 163 TORSION  16  8  9 18               3.1372678     179.7522014
 164 TORSION  17  8  9 18              -0.0082559      -0.4730286
 165 TORSION  18  9 10 20               0.6309992      36.1535901
 166 TORSION  18  9 10 19               2.6954244     154.4364446

 THE NUCLEAR REPULSION AT THE IRC POINT IS      497.7739256716

 * * * IRC RESTART INFORMATION * * *
 COORDINATES FOR $DATA AND ENTIRE $IRC GROUP FOLLOW

 COORDINATES OF SYMMETRY UNIQUE ATOMS (ANGS)
   ATOM   CHARGE       X              Y              Z
 ------------------------------------------------------------
 C           6.0   0.9424109478   0.6412754184  -0.7579343892
 C           6.0  -1.4409905374   0.3009623201  -0.0091949231
 C           6.0  -0.5268194267   0.9127481183  -1.0649032261
 C           6.0   0.3352465449  -1.2533709754   0.6978957911
 O           8.0   0.6350574459  -2.3533769719   1.1473737417
 C           6.0   1.3348730852  -0.3433366833   0.0173834470
 H           1.0   2.3824454814  -0.5548084491   0.1906562476
 C           6.0  -1.5047768889  -2.0914212736  -2.3798014071
 C           6.0  -0.6231747856  -1.1505124511  -2.6050363900
 C           6.0  -0.9002299195   0.3451292959  -2.4805711604
 C           6.0  -1.0671769315  -0.6896825813   0.7674955806
 H           1.0  -1.7427978338  -1.1498149987   1.4773843702
 H           1.0   1.6610199805   1.2812592466  -1.2583160116
 H           1.0  -2.4509201642   0.6941596752   0.0310407840
 H           1.0  -0.6921095921   1.9911962668  -1.0980367085
 H           1.0  -2.5276941811  -1.8709767573  -2.1058987395
 H           1.0  -1.2550221370  -3.1404547101  -2.4599387238
 H           1.0   0.3929368768  -1.4163587116  -2.8733575843
 H           1.0  -1.9548113860   0.5441993409  -2.6605200716
 H           1.0  -0.3274636878   0.8868435663  -3.2316614979
 $IRC   PACE=GS2        STRIDE= 0.20000   NPOINT=??
        STOTAL=  9.993036   NEXTPT=  51
        NPRT= 0   NPUN= 0   SADDLE=.FALSE.
        GA(   1)=-2.404867947E-05, 5.043204502E-04, 3.029073293E-04
        GA(   4)=-8.718010572E-05, 2.957661080E-04,-1.112227598E-04
        GA(   7)=-3.590751029E-06, 2.413536484E-04,-5.351955122E-05
        GA(  10)=-2.180946409E-04,-9.246423466E-05,-6.249594608E-04
        GA(  13)=-4.991341723E-04,-6.031430464E-04,-1.882165204E-03
        GA(  16)=-8.377974639E-05, 2.908902681E-04, 8.108316232E-05
        GA(  19)=-1.489448369E-05, 3.485575527E-05, 2.907497937E-05
        GA(  22)= 3.203845545E-04,-1.346642795E-04, 1.606066395E-03
        GA(  25)= 2.729295774E-04,-3.100146959E-04, 6.360617932E-04
        GA(  28)= 3.548123532E-04,-2.127294396E-04, 5.676822519E-06
        GA(  31)=-1.639675987E-04, 1.568534760E-05,-3.272191750E-04
        GA(  34)=-1.445965715E-05,-3.305962715E-06,-3.030781889E-05
        GA(  37)= 4.100022068E-06, 7.313255101E-05, 5.589953745E-05
        GA(  40)= 5.185757859E-06, 2.891161573E-05, 9.510578208E-07
        GA(  43)=-1.297906362E-05,-5.016459103E-06,-3.078817402E-05
        GA(  46)= 5.915877314E-05, 5.799613019E-06, 1.610720525E-04
        GA(  49)= 1.505904437E-05,-8.973538947E-06, 1.760460253E-04
        GA(  52)=-2.272928957E-05,-4.563023728E-05, 2.650230922E-05
        GA(  55)= 6.794697941E-05,-1.823403336E-05,-2.904311587E-05
        GA(  58)= 4.528112593E-05,-5.653944172E-05, 7.883793002E-06
 $END   
 A GS2 RESTART ALSO REQUIRES THE UPDATED $HESS GROUP FROM THE PUNCH FILE
 ......DONE WITH THIS PORTION OF THE IRC......
 STEP CPU TIME =     0.02 TOTAL CPU TIME =        132.1 (      2.2 MIN)
 TOTAL WALL CLOCK TIME=        137.2 SECONDS, CPU UTILIZATION IS    96.29%
               580000  WORDS OF DYNAMIC MEMORY USED
 EXECUTION OF GAMESS TERMINATED NORMALLY Sat Nov 13 20:36:17 2021
 DDI: 263640 bytes (0.3 MB / 0 MWords) used by master data server.

 ----------------------------------------
 CPU timing information for all processes
 ========================================
 0: 121.756 + 10.353 = 132.109
 ----------------------------------------
 ddikick.x: exited gracefully.
----- accounting info -----
Files used on the master node chemcompute-node-0.novalocal were:
-rw-r--r--. 1 chemcomp chemcomp    60739 Nov 13 20:33 /scratch/306156/342058.F05
-rw-rw-r--. 1 chemcomp chemcomp 17641568 Nov 13 20:36 /scratch/306156/342058.F08
-rw-rw-r--. 1 chemcomp chemcomp 65536000 Nov 13 20:36 /scratch/306156/342058.F10
Sat Nov 13 20:36:20 UTC 2021
0.155u 0.071s 2:20.94 0.1%	0+0k 120+336io 0pf+0w
Finishing Up...
Looking for IR data...
Looking for Raman data...
vibramans not found
Looking for thermodynamics data...
Looking for UV-Vis data...
306156
