----- GAMESS execution script 'rungms' -----
This job is running on host chemcompute-node-0.novalocal
under operating system Linux at Sat Nov 13 20:20:33 UTC 2021
SLURM has assigned the following compute nodes to this run:
chemcompute-node-0
Available scratch disk space (Kbyte units) at beginning of the job is
Filesystem     1K-blocks     Used Available Use% Mounted on
/dev/sda1       62903276 16838656  46064620  27% /
GAMESS temporary binary files will be written to /scratch/306148
GAMESS supplementary output files will be written to /data/slurm/342050
Copying input file 342050.inp to your run's scratch directory...
The generated host list is
chemcompute-node-0.novalocal

 Distributed Data Interface kickoff program.
 Initiating 1 compute processes on 1 nodes to run the following command:
 /data/gamess-2019R1-ddi/gamess.00.x 342050 

          ******************************************************
          *         GAMESS VERSION = 30 JUN 2019 (R1)          *
          *             FROM IOWA STATE UNIVERSITY             *
          * M.W.SCHMIDT, K.K.BALDRIDGE, J.A.BOATZ, S.T.ELBERT, *
          *   M.S.GORDON, J.H.JENSEN, S.KOSEKI, N.MATSUNAGA,   *
          *          K.A.NGUYEN, S.J.SU, T.L.WINDUS,           *
          *       TOGETHER WITH M.DUPUIS, J.A.MONTGOMERY       *
          *         J.COMPUT.CHEM.  14, 1347-1363(1993)        *
          **************** 64 BIT LINUX VERSION ****************

  SINCE 1993, STUDENTS AND POSTDOCS WORKING AT IOWA STATE UNIVERSITY
  AND ALSO IN THEIR VARIOUS JOBS AFTER LEAVING ISU HAVE MADE IMPORTANT
  CONTRIBUTIONS TO THE CODE:
     IVANA ADAMOVIC, CHRISTINE AIKENS, YURI ALEXEEV, POOJA ARORA,
     ANDREY ASADCHEV, ROB BELL, PRADIPTA BANDYOPADHYAY, JONATHAN BENTZ,
     COLLEEN BERTONI, BRETT BODE, KURT BRORSEN, CALEB CARLIN, GALINA CHABAN,
     WEI CHEN, CHEOL HO CHOI, PAUL DAY, ALBERT DEFUSCO, NUWAN DESILVA,
     TIM DUDLEY, DMITRI FEDOROV, ALEX FINDLATER, GRAHAM FLETCHER, 
     MARK FREITAG, KURT GLAESEMANN, ANASTASIA GUNINA,
     DAN KEMP, GRANT MERRILL, NORIYUKI MINEZAWA, JONATHAN MULLIN,
     TAKESHI NAGATA, SEAN NEDD, HEATHER NETZLOFF, BOSILJKA NJEGIC, RYAN OLSON,
     MIKE PAK, BUU PHAM,
     SPENCER PRUITT, LUKE ROSKOP, JIM SHOEMAKER, LYUDMILA SLIPCHENKO,
     TONY SMITH, SAROM SOK LEANG, JIE SONG, TETSUYA TAKETSUGU, SIMON WEBB,
     PENG XU, SOOHAENG YOO, FEDERICO ZAHARIEV

  ADDITIONAL CODE HAS BEEN PROVIDED BY COLLABORATORS IN OTHER GROUPS:
     IOWA STATE UNIVERSITY:
          JOE IVANIC, AARON WEST, LAIMUTIS BYTAUTAS, KLAUS RUEDENBERG
     UNIVERSITY OF TOKYO: KIMIHIKO HIRAO, TAKAHITO NAKAJIMA,
          TAKAO TSUNEDA, MUNEAKI KAMIYA, SUSUMU YANAGISAWA,
          KIYOSHI YAGI, MAHITO CHIBA, SEIKEN TOKURA, NAOAKI KAWAKAMI
     UNIVERSITY OF AARHUS: FRANK JENSEN
     UNIVERSITY OF IOWA: VISVALDAS KAIRYS, HUI LI
     NATIONAL INST. OF STANDARDS AND TECHNOLOGY: WALT STEVENS, DAVID GARMER
     UNIVERSITY OF PISA: BENEDETTA MENNUCCI, JACOPO TOMASI
     UNIVERSITY OF MEMPHIS: HENRY KURTZ, PRAKASHAN KORAMBATH
     UNIVERSITY OF ALBERTA: TOBY ZENG, MARIUSZ KLOBUKOWSKI
     UNIVERSITY OF NEW ENGLAND: MARK SPACKMAN
     MIE UNIVERSITY: HIROAKI UMEDA
     NAT. INST. OF ADVANCED INDUSTRIAL SCIENCE AND TECHNOLOGY: KAZUO KITAURA
     MICHIGAN STATE UNIVERSITY:
          KAROL KOWALSKI, MARTA WLOCH, JEFFREY GOUR, JESSE LUTZ,
          WEI LI, JUN SHEN, J. EMILIANO DEUSTUA, PIOTR PIECUCH
     UNIVERSITY OF MINNESOTA:
          YINAN SHU
     UNIVERSITY OF SILESIA: MONIKA MUSIAL, STANISLAW KUCHARSKI
     FACULTES UNIVERSITAIRES NOTRE-DAME DE LA PAIX:
          OLIVIER QUINET, BENOIT CHAMPAGNE
     UNIVERSITY OF CALIFORNIA - SANTA BARBARA: BERNARD KIRTMAN
     INSTITUTE FOR MOLECULAR SCIENCE:
          KAZUYA ISHIMURA, MICHIO KATOUDA, AND SHIGERU NAGASE
     UNIVERSITY OF NOTRE DAME: ANNA POMOGAEVA, DAN CHIPMAN
     KYUSHU UNIVERSITY:
          HARUYUKI NAKANO,
          FENG LONG GU, JACEK KORCHOWIEC, MARCIN MAKOWSKI, AND YURIKO AOKI,
          HIROTOSHI MORI AND EISAKU MIYOSHI
     PENNSYLVANIA STATE UNIVERSITY:
          TZVETELIN IORDANOV, CHET SWALINA, JONATHAN SKONE,
          SHARON HAMMES-SCHIFFER
     WASEDA UNIVERSITY:
          MASATO KOBAYASHI, TOMOKO AKAMA, TSUGUKI TOUMA,
          TAKESHI YOSHIKAWA, YASUHIRO IKABATA, JUNJI SEINO,
          YUYA NAKAJIMA, HIROMI NAKAI
     NANJING UNIVERSITY: SHUHUA LI
     UNIVERSITY OF NEBRASKA:
          PEIFENG SU, DEJUN SI, NANDUN THELLAMUREGE, YALI WANG, HUI LI
     UNIVERSITY OF ZURICH: ROBERTO PEVERATI, KIM BALDRIDGE
     N. COPERNICUS UNIVERSITY AND JACKSON STATE UNIVERSITY:
          MARIA BARYSZ
     UNIVERSITY OF COPENHAGEN: Jimmy Kromann, CASPER STEINMANN
     TOKYO INSTITUTE OF TECHNOLOGY: HIROYA NAKATA
     NAGOYA UNIVERSITY: YOSHIO NISHIMOTO, STEPHAN IRLE
     MOSCOW STATE UNIVERSITY: VLADIMIR MIRONOV
     A.N.NESMEYANOV INSTITUTE OF ORGANOELEMENT COMPOUNDS OF RUSSIAN ACADEMY OF SCIENCES:
          IGOR S. GERASIMOV

 EXECUTION OF GAMESS BEGUN Sat Nov 13 20:20:34 2021

            ECHO OF THE FIRST FEW INPUT CARDS -
 INPUT CARD>!File created by the GAMESS Input Deck Generator Plugin for Avogadro            
 INPUT CARD> $BASIS GBASIS=STO NGAUSS=3 $END                                                
 INPUT CARD> $CONTRL SCFTYP=RHF RUNTYP=SADPOINT NZVAR=1 mult=1  ICHARG=0 $END               
 INPUT CARD> $STATPT hssend=.t. OPTTOL=0.0005 NSTEP=50 $END                                 
 INPUT CARD> $STATPT HESS=calc ihrep=5 $END                                                 
 INPUT CARD> $FORCE nvib=2 $END                                                             
 INPUT CARD> $ZMAT DLC=.t. auto=.t. nonvdw(1)=3,10,8,11,3,2,2,11,8,9,9,10 $END              
 INPUT CARD>!$ZMAT IFZMAT(1)=1,3,10,1,8,11 fvalue(1)=2.00,2.00 $END                         
 INPUT CARD>                                                                                
 INPUT CARD> $DATA                                                                          
 INPUT CARD>Title                                                                           
 INPUT CARD>C1                                                                              
 INPUT CARD>C     6.0     0.92766368     0.75752068    -0.64627028                          
 INPUT CARD>C     6.0    -1.44668651     0.35110912    -0.10668556                          
 INPUT CARD>C     6.0    -0.52404356     1.05604863    -0.89425856                          
 INPUT CARD>C     6.0     0.30472404    -1.35574734     0.46237487                          
 INPUT CARD>O     8.0     0.62517673    -2.39758015     1.02054679                          
 INPUT CARD>C     6.0     1.31078601    -0.33905941    -0.02307258                          
 INPUT CARD>H     1.0     2.35231495    -0.55249590     0.17883044                          
 INPUT CARD>C     6.0    -1.43436122    -1.85214007    -1.58653951                          
 INPUT CARD>C     6.0    -0.59538871    -1.13794589    -2.44753695                          
 INPUT CARD>C     6.0    -0.83520412     0.21995240    -2.68426466                          
 INPUT CARD>C     6.0    -1.15688157    -0.98233646     0.19291179                          
 INPUT CARD>H     1.0    -1.86650789    -1.54207540     0.79517227                          
 INPUT CARD>H     1.0     1.65022540     1.48311865    -1.00304925                          
 INPUT CARD>H     1.0    -2.46592569     0.70681000    -0.03078161                          
 INPUT CARD>H     1.0    -0.74177390     2.09381151    -1.12748289                          
 INPUT CARD>H     1.0    -2.50156617    -1.66650724    -1.63577080                          
 INPUT CARD>H     1.0    -1.19531906    -2.88960600    -1.37593341                          
 INPUT CARD>H     1.0     0.40187371    -1.51918244    -2.62166595                          
 INPUT CARD>H     1.0    -1.86129797     0.55030185    -2.79973316                          
 INPUT CARD>H     1.0    -0.14446047     0.75953072    -3.32372093                          
 INPUT CARD> $END                                                                           
    1000000 WORDS OF MEMORY AVAILABLE

     BASIS OPTIONS
     -------------
     GBASIS=STO          IGAUSS=       3      POLAR=NONE    
     NDFUNC=       0     NFFUNC=       0     DIFFSP=       F
     NPFUNC=       0      DIFFS=       F     BASNAM=        


     RUN TITLE
     ---------
 Title                                                                           

 THE POINT GROUP OF THE MOLECULE IS C1      
 THE ORDER OF THE PRINCIPAL AXIS IS     0

 ATOM      ATOMIC                      COORDINATES (BOHR)
           CHARGE         X                   Y                   Z
 C           6.0     1.7530301640        1.4315065152       -1.2212737432
 C           6.0    -2.7338410940        0.6635000286       -0.2016064752
 C           6.0    -0.9902987340        1.9956425404       -1.6899036406
 C           6.0     0.5758449375       -2.5619909812        0.8737618079
 O           8.0     1.1814127136       -4.5307695171        1.9285537907
 C           6.0     2.4770263874       -0.6407293785       -0.0436008540
 H           1.0     4.4452306923       -1.0440658603        0.3379405299
 C           6.0    -2.7105496732       -3.5000372232       -2.9981249426
 C           6.0    -1.1251215181       -2.1504059210       -4.6251741803
 C           6.0    -1.5783069306        0.4156497663       -5.0725246859
 C           6.0    -2.1861891675       -1.8563467371        0.3645504229
 H           1.0    -3.5271884660       -2.9140999584        1.5026577033
 H           1.0     3.1184738240        2.8026878558       -1.8954882347
 H           1.0    -4.6599238602        1.3356772254       -0.0581688084
 H           1.0    -1.4017494158        3.9567300238       -2.1306337179
 H           1.0    -4.7272746015       -3.1492420402       -3.0911585907
 H           1.0    -2.2588254913       -5.4605635525       -2.6001371223
 H           1.0     0.7594311936       -2.8708385370       -4.9542302768
 H           1.0    -3.5173431448        1.0399197070       -5.2907285111
 H           1.0    -0.2729907044        1.4353049401       -6.2809218174

          INTERNUCLEAR DISTANCES (ANGS.)
          ------------------------------

                1 C          2 C          3 C          4 C          5 O     

   1 C       0.0000000    2.4685747 *  1.5026879 *  2.4663839 *  3.5811226  
   2 C       2.4685747 *  0.0000000    1.4030256 *  2.5109018 *  3.6219557  
   3 C       1.5026879 *  1.4030256 *  0.0000000    2.8886104 *  4.1127532  
   4 C       2.4663839 *  2.5109018 *  2.8886104 *  0.0000000    1.2246066 *
   5 O       3.5811226    3.6219557    4.1127532    1.2246066 *  0.0000000  
   6 C       1.3181980 *  2.8437613 *  2.4641207 *  1.5104550 *  2.4076356 *
   7 H       2.1039406 *  3.9154098    3.4658872    2.2177103 *  2.6637997 *
   8 C       3.6432948    2.6541339 *  3.1249788    2.7329240 *  3.3669126  
   9 C       3.0260608    2.9019955 *  2.6891218 *  3.0537235    3.8863946  
  10 C       2.7477452 *  2.6523625 *  1.9999999 *  3.6991359    4.7654818  
  11 C       2.8419462 *  1.3970764 *  2.3952948 *  1.5324285 *  2.4214926 *
  12 H       3.8952912    2.1386316 *  3.3773711    2.2044773 *  2.6440829 *
  13 H       1.0843796 *  3.4169836    2.2184837 *  3.4665548    4.4950516  
  14 H       3.4493255    1.0821890 *  2.1537099 *  3.4891039    4.5052684  
  15 H       2.1918624 *  2.1391448 *  1.0857034 *  3.9398302    5.1628659  
  16 H       4.3144687    2.7425624 *  3.4456852    3.5176770    4.1673747  
  17 H       4.2826390    3.4894713    4.0312296    2.8252839 *  3.0494937  
  18 H       3.0597419    3.6387212    3.2362129    3.0898959    3.7532866  
  19 H       3.5296812    2.7320479 *  2.3821970 *  4.3549998    5.4283610  
  20 H       2.8841283 *  3.4945554    2.4767506 *  4.3601249    5.4251592  

                6 C          7 H          8 C          9 C         10 C     

   1 C       1.3181980 *  2.1039406 *  3.6432948    3.0260608    2.7477452 *
   2 C       2.8437613 *  3.9154098    2.6541339 *  2.9019955 *  2.6523625 *
   3 C       2.4641207 *  3.4658872    3.1249788    2.6891218 *  1.9999999 *
   4 C       1.5104550 *  2.2177103 *  2.7329240 *  3.0537235    3.6991359  
   5 O       2.4076356 *  2.6637997 *  3.3669126    3.8863946    4.7654818  
   6 C       0.0000000    1.0821749 *  3.5028096    3.1858671    3.4640599  
   7 H       1.0821749 *  0.0000000    4.3754454    3.9911796    4.3536499  
   8 C       3.5028096    4.3754454    0.0000000    1.3983078 *  2.4202390 *
   9 C       3.1858671    3.9911796    1.3983078 *  0.0000000    1.3990851 *
  10 C       3.4640599    4.3536499    2.4202390 *  1.3990851 *  0.0000000  
  11 C       2.5592651 *  3.5354521    2.0000001 *  2.7039708 *  3.1348236  
  12 H       3.4945627    4.3769408    2.4403774 *  3.5063126    4.0342051  
  13 H       2.0966417 *  2.4563176 *  4.5802932    3.7415647    3.2556772  
  14 H       3.9188587    4.9844991    3.1674490    3.5696974    3.1523413  
  15 H       3.3692114    4.2758371    4.0324861    3.4940274    2.4379595 *
  16 H       4.3470614    5.3003737    1.0843476 *  2.1381894 *  2.7266888 *
  17 H       3.8230986    4.5238348    1.0852795 *  2.1392905 *  3.3927521  
  18 H       2.9952461 *  3.5470388    2.1340352 *  1.0817553 *  2.1351511 *
  19 H       4.3084712    5.2766029    2.7250396 *  2.1393337 *  1.0841274 *
  20 H       3.7707986    4.4970176    3.3915288    2.1380954 *  1.0849774 *

               11 C         12 H         13 H         14 H         15 H     

   1 C       2.8419462 *  3.8952912    1.0843796 *  3.4493255    2.1918624 *
   2 C       1.3970764 *  2.1386316 *  3.4169836    1.0821890 *  2.1391448 *
   3 C       2.3952948 *  3.3773711    2.2184837 *  2.1537099 *  1.0857034 *
   4 C       1.5324285 *  2.2044773 *  3.4665548    3.4891039    3.9398302  
   5 O       2.4214926 *  2.6440829 *  4.4950516    4.5052684    5.1628659  
   6 C       2.5592651 *  3.4945627    2.0966417 *  3.9188587    3.3692114  
   7 H       3.5354521    4.3769408    2.4563176 *  4.9844991    4.2758371  
   8 C       2.0000001 *  2.4403774 *  4.5802932    3.1674490    4.0324861  
   9 C       2.7039708 *  3.5063126    3.7415647    3.5696974    3.4940274  
  10 C       3.1348236    4.0342051    3.2556772    3.1523413    2.4379595 *
  11 C       0.0000000    1.0860916 *  3.9228359    2.1486859 *  3.3731948  
  12 H       1.0860916 *  0.0000000    4.9752199    2.4696127 *  4.2639539  
  13 H       3.9228359    4.9752199    0.0000000    4.3000767    2.4718597 *
  14 H       2.1486859 *  2.4696127 *  4.3000767    0.0000000    2.4696612 *
  15 H       3.3731948    4.2639539    2.4718597 *  2.4696612 *  0.0000000  
  16 H       2.3707270 *  2.5156046 *  5.2495574    2.8652915 *  4.1827291  
  17 H       2.4699048 *  2.6419752 *  5.2303811    4.0445127    5.0101777  
  18 H       3.2618660    4.1013245    3.6320950    4.4600446    4.0736026  
  19 H       3.4352739    4.1594969    4.0532723    2.8385141 *  2.5361737 *
  20 H       4.0528759    5.0227601    3.0215880    4.0293212    2.6382854 *

               16 H         17 H         18 H         19 H         20 H     

   1 C       4.3144687    4.2826390    3.0597419    3.5296812    2.8841283 *
   2 C       2.7425624 *  3.4894713    3.6387212    2.7320479 *  3.4945554  
   3 C       3.4456852    4.0312296    3.2362129    2.3821970 *  2.4767506 *
   4 C       3.5176770    2.8252839 *  3.0898959    4.3549998    4.3601249  
   5 O       4.1673747    3.0494937    3.7532866    5.4283610    5.4251592  
   6 C       4.3470614    3.8230986    2.9952461 *  4.3084712    3.7707986  
   7 H       5.3003737    4.5238348    3.5470388    5.2766029    4.4970176  
   8 C       1.0843476 *  1.0852795 *  2.1340352 *  2.7250396 *  3.3915288  
   9 C       2.1381894 *  2.1392905 *  1.0817553 *  2.1393337 *  2.1380954 *
  10 C       2.7266888 *  3.3927521    2.1351511 *  1.0841274 *  1.0849774 *
  11 C       2.3707270 *  2.4699048 *  3.2618660    3.4352739    4.0528759  
  12 H       2.5156046 *  2.6419752 *  4.1013245    4.1594969    5.0227601  
  13 H       5.2495574    5.2303811    3.6320950    4.0532723    3.0215880  
  14 H       2.8652915 *  4.0445127    4.4600446    2.8385141 *  4.0293212  
  15 H       4.1827291    5.0101777    4.0736026    2.5361737 *  2.6382854 *
  16 H       0.0000000    1.8082499 *  3.0697975    2.5843750 *  3.7803152  
  17 H       1.8082499 *  0.0000000    2.4455950 *  3.7820232    4.2678307  
  18 H       3.0697975    2.4455950 *  0.0000000    3.0718755    2.4462003 *
  19 H       2.5843750 *  3.7820232    3.0718755    0.0000000    1.8071721 *
  20 H       3.7803152    4.2678307    2.4462003 *  1.8071721 *  0.0000000  

  * ... LESS THAN  3.000


     ATOMIC BASIS SET
     ----------------
 THE CONTRACTED PRIMITIVE FUNCTIONS HAVE BEEN UNNORMALIZED
 THE CONTRACTED BASIS FUNCTIONS ARE NOW NORMALIZED TO UNITY

  SHELL TYPE  PRIMITIVE        EXPONENT          CONTRACTION COEFFICIENT(S)

 C         

      1   S       1            71.6168373    0.154328967295
      1   S       2            13.0450963    0.535328142282
      1   S       3             3.5305122    0.444634542185

      2   L       4             2.9412494   -0.099967229187    0.155916274999
      2   L       5             0.6834831    0.399512826089    0.607683718598
      2   L       6             0.2222899    0.700115468880    0.391957393099

 C         

      3   S       7            71.6168373    0.154328967295
      3   S       8            13.0450963    0.535328142282
      3   S       9             3.5305122    0.444634542185

      4   L      10             2.9412494   -0.099967229187    0.155916274999
      4   L      11             0.6834831    0.399512826089    0.607683718598
      4   L      12             0.2222899    0.700115468880    0.391957393099

 C         

      5   S      13            71.6168373    0.154328967295
      5   S      14            13.0450963    0.535328142282
      5   S      15             3.5305122    0.444634542185

      6   L      16             2.9412494   -0.099967229187    0.155916274999
      6   L      17             0.6834831    0.399512826089    0.607683718598
      6   L      18             0.2222899    0.700115468880    0.391957393099

 C         

      7   S      19            71.6168373    0.154328967295
      7   S      20            13.0450963    0.535328142282
      7   S      21             3.5305122    0.444634542185

      8   L      22             2.9412494   -0.099967229187    0.155916274999
      8   L      23             0.6834831    0.399512826089    0.607683718598
      8   L      24             0.2222899    0.700115468880    0.391957393099

 O         

      9   S      25           130.7093214    0.154328967295
      9   S      26            23.8088661    0.535328142282
      9   S      27             6.4436083    0.444634542185

     10   L      28             5.0331513   -0.099967229187    0.155916274999
     10   L      29             1.1695961    0.399512826089    0.607683718598
     10   L      30             0.3803890    0.700115468880    0.391957393099

 C         

     11   S      31            71.6168373    0.154328967295
     11   S      32            13.0450963    0.535328142282
     11   S      33             3.5305122    0.444634542185

     12   L      34             2.9412494   -0.099967229187    0.155916274999
     12   L      35             0.6834831    0.399512826089    0.607683718598
     12   L      36             0.2222899    0.700115468880    0.391957393099

 H         

     13   S      37             3.4252509    0.154328967295
     13   S      38             0.6239137    0.535328142282
     13   S      39             0.1688554    0.444634542185

 C         

     14   S      40            71.6168373    0.154328967295
     14   S      41            13.0450963    0.535328142282
     14   S      42             3.5305122    0.444634542185

     15   L      43             2.9412494   -0.099967229187    0.155916274999
     15   L      44             0.6834831    0.399512826089    0.607683718598
     15   L      45             0.2222899    0.700115468880    0.391957393099

 C         

     16   S      46            71.6168373    0.154328967295
     16   S      47            13.0450963    0.535328142282
     16   S      48             3.5305122    0.444634542185

     17   L      49             2.9412494   -0.099967229187    0.155916274999
     17   L      50             0.6834831    0.399512826089    0.607683718598
     17   L      51             0.2222899    0.700115468880    0.391957393099

 C         

     18   S      52            71.6168373    0.154328967295
     18   S      53            13.0450963    0.535328142282
     18   S      54             3.5305122    0.444634542185

     19   L      55             2.9412494   -0.099967229187    0.155916274999
     19   L      56             0.6834831    0.399512826089    0.607683718598
     19   L      57             0.2222899    0.700115468880    0.391957393099

 C         

     20   S      58            71.6168373    0.154328967295
     20   S      59            13.0450963    0.535328142282
     20   S      60             3.5305122    0.444634542185

     21   L      61             2.9412494   -0.099967229187    0.155916274999
     21   L      62             0.6834831    0.399512826089    0.607683718598
     21   L      63             0.2222899    0.700115468880    0.391957393099

 H         

     22   S      64             3.4252509    0.154328967295
     22   S      65             0.6239137    0.535328142282
     22   S      66             0.1688554    0.444634542185

 H         

     23   S      67             3.4252509    0.154328967295
     23   S      68             0.6239137    0.535328142282
     23   S      69             0.1688554    0.444634542185

 H         

     24   S      70             3.4252509    0.154328967295
     24   S      71             0.6239137    0.535328142282
     24   S      72             0.1688554    0.444634542185

 H         

     25   S      73             3.4252509    0.154328967295
     25   S      74             0.6239137    0.535328142282
     25   S      75             0.1688554    0.444634542185

 H         

     26   S      76             3.4252509    0.154328967295
     26   S      77             0.6239137    0.535328142282
     26   S      78             0.1688554    0.444634542185

 H         

     27   S      79             3.4252509    0.154328967295
     27   S      80             0.6239137    0.535328142282
     27   S      81             0.1688554    0.444634542185

 H         

     28   S      82             3.4252509    0.154328967295
     28   S      83             0.6239137    0.535328142282
     28   S      84             0.1688554    0.444634542185

 H         

     29   S      85             3.4252509    0.154328967295
     29   S      86             0.6239137    0.535328142282
     29   S      87             0.1688554    0.444634542185

 H         

     30   S      88             3.4252509    0.154328967295
     30   S      89             0.6239137    0.535328142282
     30   S      90             0.1688554    0.444634542185

 TOTAL NUMBER OF BASIS SET SHELLS             =   30
 NUMBER OF CARTESIAN GAUSSIAN BASIS FUNCTIONS =   60
 NUMBER OF ELECTRONS                          =   72
 CHARGE OF MOLECULE                           =    0
 SPIN MULTIPLICITY                            =    1
 NUMBER OF OCCUPIED ORBITALS (ALPHA)          =   36
 NUMBER OF OCCUPIED ORBITALS (BETA )          =   36
 TOTAL NUMBER OF ATOMS                        =   20
 THE NUCLEAR REPULSION ENERGY IS      513.0665693914

     $CONTRL OPTIONS
     ---------------
 SCFTYP=RHF          RUNTYP=SADPOINT     EXETYP=RUN     
 MPLEVL=       0     CITYP =NONE         CCTYP =NONE         VBTYP =NONE    
 DFTTYP=NONE         TDDFT =NONE    
 MULT  =       1     ICHARG=       0     NZVAR =       1     COORD =UNIQUE  
 PP    =NONE         RELWFN=NONE         LOCAL =NONE         NUMGRD=       F
 ISPHER=      -1     NOSYM =       0     MAXIT =      30     UNITS =ANGS    
 PLTORB=       F     MOLPLT=       F     AIMPAC=       F     FRIEND=        
 NPRINT=       7     IREST =       0     GEOM  =INPUT   
 NORMF =       0     NORMP =       0     ITOL  =      20     ICUT  =       9
 INTTYP=BEST         GRDTYP=BEST         QMTTOL= 1.0E-06

     $SYSTEM OPTIONS
     ---------------
  REPLICATED MEMORY=     1000000 WORDS (ON EVERY NODE).
 DISTRIBUTED MEMDDI=           0 MILLION WORDS IN AGGREGATE,
 MEMDDI DISTRIBUTED OVER   1 PROCESSORS IS           0 WORDS/PROCESSOR.
 TOTAL MEMORY REQUESTED ON EACH PROCESSOR=     1000000 WORDS.
 TIMLIM=      525600.00 MINUTES, OR     365.0 DAYS.
 PARALL= F  BALTYP=  DLB     KDIAG=    0  COREFL= F
 MXSEQ2=     300 MXSEQ3=     150  mem10=         0

          ----------------
          PROPERTIES INPUT
          ----------------

     MOMENTS            FIELD           POTENTIAL          DENSITY
 IEMOM =       1   IEFLD =       0   IEPOT =       0   IEDEN =       0
 WHERE =COMASS     WHERE =NUCLEI     WHERE =NUCLEI     WHERE =NUCLEI  
 OUTPUT=BOTH       OUTPUT=BOTH       OUTPUT=BOTH       OUTPUT=BOTH    
 IEMINT=       0   IEFINT=       0                     IEDINT=       0
                                                       MORB  =       0
          EXTRAPOLATION IN EFFECT
          SOSCF IN EFFECT
 ORBITAL PRINTING OPTION: NPREO=     1    60     2     1

     -------------------------------
     INTEGRAL TRANSFORMATION OPTIONS
     -------------------------------
     NWORD  =            0
     CUTOFF = 1.0E-09     MPTRAN =       0
     DIRTRF =       F     AOINTS =DUP     

          ----------------------
          INTEGRAL INPUT OPTIONS
          ----------------------
 NOPK  =       1 NORDER=       0 SCHWRZ=       T


 -----------------------------------------------
  STATISTICS ON AUTOMATIC COORDINATE GENERATION 
 -----------------------------------------------
  NUMBER OF USER SPECIFIED BONDS                             6
  NUMBER OF BONDS                                           25
  NUMBER OF ANGLES                                          61
  NUMBER OF TORSIONS                                        62
  NUMBER OF EXTRA COORD.                                     0
  NUMBER OF EXTRA COORD. FOR CONSTRAINTS                     0
  NUMBER OF CONSTRAINED COORD.                               0

  TOTAL NUMBER OF PRIMITIVES                               148
 -----------------------------------------------

   --- ENCODED Z MATRIX ---
 COORD  TYPE   I   J   K   L   M   N
    1      1    1   6
    2      1    1   3
    3      1    1  13
    4      1    2   3
    5      1    2  14
    6      1    2  11
    7      1    2   3
    8      1    2  11
    9      1    3  15
   10      1    3  10
   11      1    4   6
   12      1    4  11
   13      1    4   5
   14      1    6   7
   15      1    8  16
   16      1    8   9
   17      1    8   9
   18      1    8  11
   19      1    8  17
   20      1    9  10
   21      1    9  18
   22      1    9  10
   23      1   10  20
   24      1   10  19
   25      1   11  12
   26      2    1   6   7
   27      2    1   3   2
   28      2    1   3   2
   29      2    1   3  10
   30      2    1   6   4
   31      2    1   3  15
   32      2    2  11   4
   33      2    2   3  10
   34      2    2  11  12
   35      2    2  11   4
   36      2    2  11   8
   37      2    2  11   8
   38      2    2   3  15
   39      2    2  11  12
   40      2    2   3  10
   41      2    2   3  15
   42      2    3  10   9
   43      2    3  10   9
   44      2    3   2  11
   45      2    3   1   6
   46      2    3   2  11
   47      2    3   2  11
   48      2    3   2  14
   49      2    3   1  13
   50      2    3   2  11
   51      2    3   2  14
   52      2    3  10  19
   53      2    3  10  20
   54      2    4  11  12
   55      2    4  11   8
   56      2    4   6   7
   57      2    5   4  11
   58      2    5   4   6
   59      2    6   1  13
   60      2    6   4  11
   61      2    8  11  12
   62      2    8   9  10
   63      2    8   9  10
   64      2    8   9  10
   65      2    8   9  18
   66      2    8   9  10
   67      2    8   9  18
   68      2    9  10  19
   69      2    9  10  20
   70      2    9   8  17
   71      2    9   8  11
   72      2    9  10  19
   73      2    9   8  17
   74      2    9   8  11
   75      2    9   8  16
   76      2    9   8  16
   77      2    9  10  20
   78      2   10   9  18
   79      2   10   3  15
   80      2   10   9  18
   81      2   11   2  14
   82      2   11   8  17
   83      2   11   8  16
   84      2   11   2  14
   85      2   16   8  17
   86      2   19  10  20
   87      3    1   3  10   9
   88      3    1   3   2  11
   89      3    1   6   4   5
   90      3    1   3   2  14
   91      3    1   6   4  11
   92      3    1   3  10  19
   93      3    1   3  10  20
   94      3    2  11   4   5
   95      3    2  11   4   6
   96      3    2  11   8  17
   97      3    2  11   8   9
   98      3    2  11   8  16
   99      3    2   3   1   6
  100      3    2   3  10  19
  101      3    2   3  10  20
  102      3    2   3   1  13
  103      3    2   3  10   9
  104      3    3   2  11   4
  105      3    3   1   6   7
  106      3    3   2  11   8
  107      3    3  10   9  18
  108      3    3  10   9   8
  109      3    3   1   6   4
  110      3    3   2  11  12
  111      3    4  11   2  14
  112      3    4   6   1  13
  113      3    4  11   8  17
  114      3    4  11   8   9
  115      3    4  11   8  16
  116      3    5   4   6   7
  117      3    5   4  11   8
  118      3    5   4  11  12
  119      3    6   1   3  10
  120      3    6   1   3  15
  121      3    6   4  11   8
  122      3    6   4  11  12
  123      3    7   6   1  13
  124      3    7   6   4  11
  125      3    8  11   2  14
  126      3    8   9  10  19
  127      3    8   9  10  20
  128      3    9   8  11  12
  129      3    9  10   3  15
  130      3   10   3   2  11
  131      3   10   3   2  14
  132      3   10   3   1  13
  133      3   10   9   8  17
  134      3   10   9   8  11
  135      3   10   9   8  16
  136      3   11   2   3  15
  137      3   11   8   9  18
  138      3   12  11   8  17
  139      3   12  11   8  16
  140      3   12  11   2  14
  141      3   13   1   3  15
  142      3   14   2   3  15
  143      3   15   3  10  20
  144      3   15   3  10  19
  145      3   16   8   9  18
  146      3   17   8   9  18
  147      3   18   9  10  20
  148      3   18   9  10  19

          INDEP./SYM. INTERNAL COORDINATES
          --------------------------------
 CRD  1=  -0.1176 (  2) -0.1495 ( 10) -0.1167 ( 12) -0.1522 ( 18) -0.4044 ( 29)
           0.1381 ( 33)  0.1373 ( 36)  0.1373 ( 37)  0.1381 ( 40) -0.4023 ( 55)
           0.1199 ( 61)  0.1214 ( 79)  0.1576 ( 88)  0.1657 ( 90)  0.1027 ( 94)
          -0.1549 (104)  0.2118 (106) -0.1630 (111)  0.2036 (125) -0.2092 (130)
          -0.2011 (131)
 CRD  2=  -0.2083 (  1) -0.2959 (  2)  0.1520 ( 11)  0.2931 ( 12) -0.1867 ( 26)
          -0.1153 ( 31)  0.1289 ( 42)  0.1289 ( 43) -0.1476 ( 49)  0.1264 ( 54)
           0.1830 ( 56)  0.2022 ( 57) -0.1226 ( 58) -0.1070 ( 61) -0.1296 ( 71)
          -0.1296 ( 74)  0.1076 ( 79)  0.1895 ( 87)  0.1289 ( 92)  0.1366 ( 93)
           0.1444 ( 97)  0.1436 (103) -0.1039 (106)  0.1476 (113)  0.2045 (114)
           0.1376 (115) -0.1016 (125) -0.1074 (130) -0.1074 (131)
 CRD  3=  -0.1304 (  2) -0.1668 (  3) -0.1014 ( 10) -0.1968 ( 11)  0.2463 ( 12)
           0.1342 ( 13)  0.1044 ( 23) -0.1029 ( 27) -0.1029 ( 28)  0.1814 ( 33)
          -0.1746 ( 36) -0.1746 ( 37)  0.1814 ( 40) -0.1215 ( 42) -0.1215 ( 43)
           0.1502 ( 45) -0.1026 ( 49)  0.3550 ( 57) -0.1982 ( 58) -0.1570 ( 60)
           0.1556 ( 61) -0.1576 ( 79) -0.1020 ( 82) -0.1797 (117) -0.1826 (119)
          -0.1982 (121) -0.1742 (132) -0.1057 (134) -0.1160 (137)
 CRD  4=  -0.4212 ( 10)  0.1119 ( 11)  0.4111 ( 18)  0.1369 ( 42)  0.1369 ( 43)
          -0.1167 ( 52) -0.1999 ( 53) -0.1431 ( 57)  0.1342 ( 58) -0.1043 ( 71)
          -0.1043 ( 74)  0.2205 ( 82) -0.1251 ( 94) -0.1508 ( 95) -0.1360 ( 99)
          -0.1101 (102) -0.1364 (117) -0.1542 (119) -0.1621 (121)  0.1086 (126)
          -0.1283 (132)  0.1067 (134)  0.1037 (137)
 CRD  5=  -0.1526 (  1)  0.3345 (  2) -0.1038 ( 10) -0.2562 ( 11)  0.1692 ( 12)
          -0.1062 ( 13)  0.3146 ( 49) -0.1487 ( 53) -0.1309 ( 56)  0.2635 ( 57)
          -0.3841 ( 58) -0.2529 ( 59)  0.1205 ( 60) -0.1435 ( 71) -0.1435 ( 74)
           0.1464 ( 83)  0.1650 (107)  0.1485 (108)
 CRD  6=   0.2488 (  1)  0.3367 (  2)  0.3488 ( 11)  0.3592 ( 12)  0.1359 ( 13)
           0.3256 ( 14) -0.2265 ( 30)  0.1005 ( 45)  0.2015 ( 52)  0.2166 ( 56)
          -0.1278 ( 57) -0.1149 ( 82)  0.1913 ( 83)  0.1351 (107)  0.1336 (108)
          -0.1719 (134) -0.1728 (137)
 CRD  7=  -0.5402 ( 10) -0.5531 ( 18) -0.1460 ( 52) -0.1097 ( 61) -0.1031 ( 79)
          -0.1495 ( 83)  0.1028 ( 90) -0.1161 (106) -0.1071 (111) -0.1449 (125)
           0.1117 (126)  0.1154 (130)  0.1430 (131)  0.1002 (133) -0.1108 (135)
          -0.1335 (145)  0.1348 (148)
 CRD  8=  -0.4416 (  1) -0.1043 (  3)  0.1499 ( 11) -0.4471 ( 26)  0.3191 ( 49)
           0.4054 ( 56) -0.1462 ( 57)  0.1892 ( 58) -0.3850 ( 59)
 CRD  9=  -0.1592 (  4) -0.1592 (  7)  0.1334 ( 12)  0.1517 ( 13) -0.1002 ( 14)
          -0.1002 ( 15) -0.2047 ( 16) -0.2047 ( 17) -0.1493 ( 19) -0.1781 ( 20)
           0.1089 ( 21) -0.1781 ( 22) -0.2380 ( 23) -0.1212 ( 26)  0.1173 ( 30)
           0.1094 ( 49)  0.1880 ( 57) -0.1572 ( 60) -0.1666 ( 62) -0.1666 ( 63)
          -0.1666 ( 64)  0.1200 ( 65) -0.1666 ( 66)  0.1200 ( 67) -0.1395 ( 75)
          -0.1395 ( 76) -0.1041 ( 87) -0.1556 ( 92)  0.1096 ( 98) -0.1698 (100)
          -0.1183 (103)  0.1011 (115)
 CRD 10=   0.2703 (  2)  0.1887 (  3)  0.1045 (  4) -0.1680 (  6)  0.1045 (  7)
          -0.1680 (  8) -0.1660 ( 12) -0.1693 ( 13) -0.1774 ( 19) -0.1095 ( 20)
          -0.1095 ( 22) -0.1606 ( 24) -0.1414 ( 45)  0.1742 ( 48)  0.2262 ( 49)
           0.1742 ( 51) -0.1119 ( 68) -0.1119 ( 72)  0.1047 ( 78)  0.1047 ( 80)
          -0.1810 ( 81) -0.1810 ( 84)  0.1264 ( 87)  0.1690 ( 97)  0.1250 ( 98)
           0.1272 (103)  0.1596 (114)  0.1156 (115)  0.1085 (128)  0.1510 (129)
 CRD 11=   0.1693 (  2)  0.3166 (  5)  0.2444 ( 12)  0.2276 ( 14) -0.1272 ( 15)
           0.1246 ( 25) -0.1616 ( 30)  0.1206 ( 45) -0.2621 ( 52)  0.1407 ( 53)
          -0.1154 ( 55)  0.1140 ( 56) -0.1117 ( 58)  0.1136 ( 71)  0.1136 ( 74)
           0.1189 ( 82) -0.2653 ( 83) -0.2033 (107) -0.1860 (108)  0.2126 (134)
           0.2222 (137)
 CRD 12=   0.1661 (  1)  0.3337 (  3)  0.1723 (  4)  0.1870 (  6)  0.1723 (  7)
           0.1870 (  8)  0.2147 (  9)  0.2042 ( 11)  0.3541 ( 13) -0.1906 ( 14)
           0.1191 ( 16)  0.1191 ( 17)  0.1001 ( 19)  0.1278 ( 20)  0.1278 ( 22)
           0.1658 ( 25) -0.1576 ( 26)  0.3002 ( 30) -0.1996 ( 45)  0.1701 ( 49)
          -0.1425 ( 56)  0.1103 ( 57) -0.2043 ( 60)
 CRD 13=  -0.2225 (  3) -0.1054 (  4)  0.1154 (  6) -0.1054 (  7)  0.1154 (  8)
           0.3257 (  9) -0.1057 ( 10) -0.1250 ( 11)  0.1675 ( 13) -0.3432 ( 25)
          -0.1551 ( 27) -0.1551 ( 28)  0.1483 ( 31)  0.1587 ( 32)  0.1587 ( 35)
           0.1446 ( 45) -0.1504 ( 54)  0.1671 ( 58) -0.1893 ( 59) -0.1143 ( 60)
           0.1074 ( 82)  0.1011 ( 97) -0.1182 (113)  0.1094 (119)  0.1182 (121)
 CRD 14=  -0.1777 (  4) -0.1852 (  5) -0.1529 (  6) -0.1777 (  7) -0.1529 (  8)
           0.2190 ( 16)  0.2190 ( 17)  0.1938 ( 19)  0.2421 ( 20)  0.3148 ( 21)
           0.2421 ( 22)  0.1890 ( 23) -0.1545 ( 25)  0.1021 ( 31) -0.1080 ( 34)
          -0.1067 ( 38) -0.1080 ( 39) -0.1067 ( 41)  0.1425 ( 69)  0.1353 ( 70)
           0.1353 ( 73)  0.1425 ( 77)  0.1072 ( 89) -0.1238 ( 93)  0.1272 ( 96)
          -0.1145 (101) -0.1042 (112)  0.1028 (129)
 CRD 15=   0.3117 ( 15)  0.2420 ( 16)  0.2420 ( 17) -0.2245 ( 20) -0.2245 ( 22)
          -0.3003 ( 24)  0.2953 ( 65)  0.2953 ( 67)  0.1022 ( 70)  0.1022 ( 73)
          -0.2885 ( 78) -0.2885 ( 80)
 CRD 16=   0.1092 (  4) -0.1346 (  6)  0.1092 (  7) -0.1346 (  8)  0.2350 (  9)
          -0.2654 ( 25)  0.2014 ( 48)  0.2014 ( 51) -0.1636 ( 52)  0.1398 ( 53)
           0.1115 ( 68)  0.1115 ( 72) -0.1182 ( 75) -0.1182 ( 76) -0.2054 ( 81)
          -0.1026 ( 82)  0.1680 ( 83) -0.2054 ( 84)  0.1158 ( 90) -0.1122 ( 94)
          -0.1239 ( 95) -0.1038 ( 99)  0.1634 (126)  0.1403 (127)  0.1101 (133)
           0.1626 (135)  0.1094 (142)  0.1625 (145)  0.1101 (146)  0.1366 (147)
           0.1597 (148)
 CRD 17=  -0.1045 (  4) -0.1045 (  7)  0.1410 ( 10) -0.1192 ( 20) -0.2577 ( 21)
          -0.1192 ( 22) -0.1686 ( 24) -0.2266 ( 25)  0.1435 ( 52) -0.1091 ( 68)
          -0.1091 ( 72)  0.1534 ( 79)  0.1069 ( 82) -0.1433 ( 83)  0.1434 ( 88)
           0.1732 ( 89)  0.1087 ( 90)  0.2109 ( 91) -0.1354 ( 94) -0.1728 ( 95)
          -0.1150 ( 99) -0.1081 (106)  0.1420 (116) -0.1244 (118) -0.1440 (120)
          -0.1103 (121) -0.1617 (122)  0.1796 (124) -0.1511 (126) -0.1518 (135)
           0.1501 (136) -0.1227 (141)  0.1153 (142) -0.1608 (145) -0.1642 (148)
 CRD 18=  -0.2332 (  3) -0.3804 (  5)  0.5418 (  9) -0.1855 ( 13)  0.1371 ( 14)
           0.1439 ( 21)  0.3771 ( 25)
 CRD 19=  -0.3477 (  5) -0.1678 ( 15) -0.4283 ( 21)  0.1565 ( 23) -0.1693 ( 24)
           0.2180 ( 25) -0.1028 ( 52)  0.1227 ( 53)  0.1136 ( 61)  0.1070 ( 94)
           0.1189 ( 95)  0.1094 ( 99) -0.1265 (104) -0.1344 (105) -0.1532 (109)
          -0.1350 (111) -0.1277 (112)  0.1034 (118)  0.1153 (122) -0.1090 (123)
           0.1125 (126)  0.1133 (127)  0.1304 (129) -0.1071 (140)
 CRD 20=   0.1271 (  6)  0.1271 (  8)  0.3036 ( 15) -0.3336 ( 19)  0.1609 ( 21)
           0.1529 ( 23) -0.1128 ( 24)  0.1296 ( 34)  0.1296 ( 39) -0.1541 ( 48)
          -0.1541 ( 51) -0.1638 ( 52)  0.1195 ( 53) -0.1082 ( 54)  0.1613 ( 81)
          -0.1290 ( 82)  0.1787 ( 83)  0.1613 ( 84) -0.1079 (122)  0.1771 (126)
           0.1271 (127)  0.1651 (128)  0.1297 (133)  0.1831 (135)  0.1954 (145)
           0.1420 (146)  0.1386 (147)  0.1885 (148)
 CRD 21=  -0.1845 ( 15) -0.3392 ( 21)  0.2787 ( 23) -0.3336 ( 24) -0.1021 ( 61)
           0.1030 ( 69)  0.1030 ( 77) -0.1123 ( 82) -0.1133 ( 89) -0.1124 ( 91)
           0.1615 (104)  0.1806 (105)  0.1100 (106)  0.1942 (109)  0.1795 (110)
           0.1171 (111)  0.1656 (112) -0.1004 (116) -0.1308 (119) -0.1083 (120)
           0.1520 (123) -0.1306 (130) -0.1043 (131) -0.1033 (132)  0.1222 (133)
          -0.1308 (136)  0.1350 (140) -0.1045 (142)  0.1030 (146)
 CRD 22=  -0.1323 (  5)  0.2238 ( 15)  0.2113 ( 19)  0.1665 ( 21)  0.2687 ( 23)
           0.1737 ( 24) -0.1177 ( 25)  0.2438 ( 53) -0.1089 ( 70) -0.1089 ( 73)
           0.2375 ( 82)  0.1093 (110)  0.1962 (126)  0.3024 (127) -0.2889 (133)
          -0.1861 (135) -0.2014 (146)  0.2169 (147)  0.1108 (148)
 CRD 23=   0.3611 ( 15)  0.4865 ( 19) -0.4498 ( 23) -0.3509 ( 24)  0.1835 ( 85)
          -0.1738 ( 86)  0.1011 ( 98)  0.1051 (115)  0.1104 (139)
 CRD 24=  -0.2005 (  5) -0.2835 ( 15) -0.3831 ( 19)  0.1682 ( 21) -0.3855 ( 23)
          -0.3470 ( 24)  0.1226 ( 68)  0.1226 ( 72)  0.1279 ( 75)  0.1279 ( 76)
          -0.1625 ( 85) -0.1784 ( 86)  0.1382 ( 92) -0.1440 ( 98)  0.1334 (100)
          -0.1457 (115)  0.1078 (127) -0.1636 (139)  0.1520 (144)  0.1013 (147)
 CRD 25=   0.1257 (  3)  0.1270 (  6)  0.1270 (  8) -0.2024 ( 13) -0.3667 ( 15)
           0.2123 ( 19) -0.1849 ( 23)  0.1804 ( 24)  0.1009 ( 53) -0.1012 ( 69)
           0.1524 ( 70)  0.1524 ( 73) -0.1049 ( 75) -0.1049 ( 76) -0.1012 ( 77)
           0.1048 ( 92)  0.1055 ( 93)  0.2036 ( 96)  0.1593 ( 98)  0.1177 (100)
           0.1185 (101)  0.1929 (113)  0.1486 (115)  0.1086 (128)  0.2497 (138)
           0.2054 (139)  0.1562 (143)  0.1555 (144)
 CRD 26=  -0.1997 (  3)  0.3561 (  5) -0.1007 ( 13) -0.1995 ( 15)  0.1053 ( 21)
           0.1392 ( 23) -0.3400 ( 24)  0.1247 ( 69)  0.1247 ( 77) -0.1340 ( 92)
          -0.1879 ( 93)  0.1015 ( 96) -0.1323 (100) -0.1862 (101)  0.1268 (108)
           0.1075 (113)  0.2143 (127) -0.2125 (133) -0.1015 (134)  0.1070 (138)
          -0.2194 (143) -0.1656 (144) -0.1424 (146)  0.1491 (147)
 CRD 27=  -0.1215 (  9) -0.1729 ( 61) -0.1873 ( 79) -0.1439 ( 88)  0.1294 ( 91)
          -0.1177 ( 95)  0.1534 ( 99)  0.1352 (104) -0.3008 (105) -0.1512 (109)
           0.2417 (110)  0.2073 (116) -0.1612 (118)  0.2718 (120) -0.2246 (122)
          -0.2373 (123)  0.2712 (124) -0.2561 (136)  0.1995 (140)  0.2108 (141)
          -0.2103 (142)
 CRD 28=   0.1085 (  1)  0.4178 (  3)  0.2131 (  9) -0.1714 ( 12) -0.3118 ( 13)
           0.2372 ( 14) -0.3550 ( 25) -0.3170 ( 26)  0.3093 ( 56)  0.2562 ( 57)
          -0.2546 ( 58)  0.1127 ( 59)
 CRD 29=  -0.2316 (  2) -0.1024 (  5) -0.2615 (  9)  0.1217 ( 11) -0.2158 ( 12)
           0.2661 ( 13)  0.6349 ( 14)  0.2681 ( 49) -0.1297 ( 56)  0.1224 ( 57)
          -0.2347 ( 59)
 CRD 30=   0.1717 (  5)  0.1300 (  9) -0.1669 ( 10) -0.1684 ( 18)  0.1288 ( 25)
           0.1074 ( 61)  0.2734 ( 89) -0.2130 ( 90) -0.2716 ( 94)  0.2794 (102)
           0.1980 (105)  0.2038 (111) -0.2745 (112) -0.2369 (117) -0.1149 (118)
           0.1163 (122) -0.2009 (124)  0.1919 (125) -0.1908 (131)  0.2425 (132)
           0.1275 (141) -0.1016 (145)  0.1027 (148)
 CRD 31=   0.3308 (  1) -0.2397 (  2)  0.2926 (  3) -0.2285 (  9) -0.3658 ( 11)
           0.2469 ( 12) -0.3254 ( 13)  0.2381 ( 25)  0.1239 ( 49) -0.1091 ( 57)
           0.2323 ( 58) -0.2201 ( 59) -0.1232 ( 60)
 CRD 32=   0.1445 (  2)  0.2404 (  3) -0.3452 (  5) -0.1370 ( 11)  0.1585 ( 12)
           0.2205 ( 13) -0.1545 ( 14) -0.2581 ( 15)  0.2067 ( 19)  0.3997 ( 21)
           0.2039 ( 23) -0.2593 ( 24) -0.1072 ( 30)  0.1106 (128) -0.1130 (129)
           0.1233 (139) -0.1277 (144)
 CRD 33=   0.1889 (  1)  0.2010 (  2) -0.1972 (  3) -0.3070 (  9) -0.1890 ( 12)
           0.1056 ( 13) -0.1150 ( 14)  0.2332 ( 25) -0.2549 ( 26)  0.1178 ( 31)
           0.1616 ( 48) -0.1457 ( 49)  0.1616 ( 51) -0.1457 ( 54)  0.2747 ( 56)
           0.1779 ( 57) -0.2232 ( 58)  0.1891 ( 59) -0.1650 ( 81) -0.1650 ( 84)
          -0.1223 ( 92) -0.1334 (115)
 CRD 34=   0.2573 (  1)  0.1106 (  2) -0.3651 (  3)  0.1505 (  4) -0.2023 (  5)
           0.1407 (  6)  0.1505 (  7)  0.1407 (  8) -0.2091 (  9)  0.2961 ( 11)
           0.1917 ( 12) -0.4319 ( 13) -0.2335 ( 14) -0.2751 ( 25)  0.1114 ( 49)
 CRD 35=   0.2491 (  5)  0.1641 ( 14) -0.1445 ( 15)  0.1339 ( 19)  0.3639 ( 21)
           0.1133 ( 23) -0.1358 ( 24)  0.1632 ( 52)  0.1637 ( 83)  0.1145 ( 93)
          -0.1216 ( 96)  0.1226 (101) -0.1206 (113) -0.1591 (126) -0.1228 (128)
           0.1334 (129)  0.1648 (135) -0.1977 (138) -0.1246 (139)  0.2098 (143)
           0.1187 (144)  0.2312 (145) -0.2221 (148)
 CRD 36=   0.1057 ( 12)  0.1659 ( 16)  0.1659 ( 17)  0.2580 ( 19) -0.1637 ( 20)
          -0.1637 ( 22) -0.2632 ( 23) -0.2221 ( 65) -0.2221 ( 67) -0.1489 ( 68)
          -0.1489 ( 72)  0.1533 ( 75)  0.1533 ( 76)  0.2224 ( 78)  0.2224 ( 80)
          -0.1720 ( 85)  0.1715 ( 86) -0.1428 ( 92) -0.1708 ( 98) -0.1738 (100)
          -0.1404 (115) -0.1660 (139) -0.1717 (144)  0.1101 (145)  0.1045 (147)
           0.1304 (148)
 CRD 37=   0.1104 (  3) -0.1666 (  5) -0.1808 ( 10)  0.1162 ( 13)  0.1286 ( 15)
          -0.1757 ( 18) -0.1303 ( 21)  0.1312 ( 24)  0.1033 ( 52)  0.1437 ( 53)
           0.1436 ( 82)  0.1043 ( 83)  0.1276 (105) -0.2509 (107) -0.1001 (118)
          -0.1216 (124) -0.1357 (126)  0.1394 (127) -0.1424 (133)  0.1380 (135)
           0.2503 (137)  0.1047 (141)  0.3535 (145) -0.3512 (148)
 CRD 38=   0.4051 (  1) -0.2428 (  2)  0.1430 (  5) -0.1180 (  6) -0.1180 (  8)
          -0.1808 ( 12)  0.1849 ( 13) -0.3341 ( 14) -0.2704 ( 30)  0.1838 ( 49)
           0.2018 ( 56) -0.2051 ( 58) -0.2573 ( 59)  0.1715 ( 60) -0.1053 ( 89)
           0.1095 ( 94) -0.1028 (120) -0.1044 (123)
 CRD 39=   0.1216 (  2) -0.1518 (  3)  0.1122 (  4)  0.1122 (  7) -0.2805 ( 11)
           0.1215 ( 12)  0.2110 ( 14) -0.1976 ( 26)  0.1859 ( 30) -0.1451 ( 45)
          -0.1085 ( 52) -0.1154 ( 53)  0.1122 ( 58)  0.1878 ( 59) -0.1119 ( 61)
          -0.1158 ( 89)  0.1298 ( 94)  0.1660 (102)  0.1480 (110) -0.1837 (112)
          -0.2035 (116) -0.1235 (120) -0.1916 (122)  0.1170 (126) -0.1513 (127)
           0.1232 (132) -0.1371 (133)  0.1263 (136)  0.1295 (140)  0.1452 (142)
          -0.1641 (146) -0.1380 (147)  0.1302 (148)
 CRD 40=  -0.3227 (  1)  0.2331 (  3) -0.1191 (  4) -0.1191 (  7)  0.4075 ( 11)
          -0.1979 ( 13)  0.2345 ( 26)  0.1854 ( 45)  0.1114 ( 48) -0.1192 ( 49)
           0.1114 ( 51) -0.1700 ( 56)  0.1549 ( 57) -0.1324 ( 60) -0.1081 ( 81)
          -0.1081 ( 84) -0.1138 (115) -0.1023 (120) -0.1096 (127) -0.1210 (133)
           0.1074 (136)  0.1292 (140)  0.1147 (142) -0.1090 (146) -0.1175 (147)
 CRD 41=   0.1027 (  2) -0.1966 ( 10)  0.1003 ( 12) -0.2251 ( 18)  0.1002 ( 61)
           0.1115 ( 79) -0.1190 ( 89) -0.2724 ( 90) -0.2764 (105) -0.1228 (110)
           0.2568 (111)  0.1268 (112)  0.1649 (116)  0.1073 (117)  0.2415 (118)
          -0.1662 (120)  0.1552 (122) -0.1734 (123)  0.2521 (124)  0.1985 (125)
          -0.1977 (131) -0.1149 (132)  0.1347 (136) -0.2652 (141)  0.1208 (145)
 CRD 42=   0.2945 ( 10) -0.2689 ( 18) -0.1313 ( 52) -0.1043 ( 53)  0.1521 ( 69)
          -0.1478 ( 70) -0.1478 ( 73)  0.1521 ( 77)  0.1038 ( 82)  0.1279 ( 83)
           0.1898 ( 89) -0.1739 ( 94) -0.1402 (102) -0.1102 (110)  0.1946 (112)
           0.2225 (116) -0.1515 (117) -0.1191 (118)  0.1233 (120)  0.1250 (122)
           0.1601 (123)  0.1331 (126) -0.1393 (127) -0.1166 (132) -0.1399 (133)
           0.1371 (135) -0.1301 (136) -0.1312 (140) -0.1039 (142)  0.1219 (145)
          -0.1551 (146) -0.1449 (147)  0.1276 (148)
 CRD 43=  -0.2281 (  2)  0.2243 ( 12) -0.1982 ( 15)  0.2032 ( 24)  0.1214 ( 31)
           0.1699 ( 34) -0.1638 ( 38)  0.1699 ( 39) -0.1638 ( 41)  0.1220 ( 48)
           0.1220 ( 51) -0.1444 ( 54)  0.1055 ( 65)  0.1055 ( 67)  0.1143 ( 69)
          -0.1124 ( 70) -0.1124 ( 73)  0.1143 ( 77) -0.1026 ( 78) -0.1026 ( 80)
          -0.1164 ( 81) -0.1164 ( 84)  0.1293 ( 85) -0.1486 ( 86) -0.1279 ( 93)
          -0.1689 ( 96) -0.1783 (101) -0.1342 (113)  0.1778 (127)  0.1842 (128)
           0.1719 (129)  0.1728 (133)  0.1319 (139)  0.1324 (144)  0.1513 (146)
           0.1536 (147)
 CRD 44=  -0.1308 (  3) -0.1465 (  4) -0.1668 (  6) -0.1465 (  7) -0.1668 (  8)
           0.1799 (  9) -0.1058 ( 13) -0.1483 ( 16) -0.1483 ( 17)  0.1534 ( 19)
          -0.1414 ( 20) -0.1414 ( 22)  0.1655 ( 23)  0.1838 ( 25)  0.1261 ( 27)
           0.1261 ( 28) -0.1678 ( 31)  0.1275 ( 32)  0.1275 ( 35) -0.1422 ( 45)
           0.1268 ( 49) -0.1515 ( 54)  0.1157 ( 57) -0.1184 ( 60)  0.1251 ( 68)
           0.1251 ( 72)  0.1154 ( 75)  0.1154 ( 76) -0.1875 ( 85) -0.1704 ( 86)
           0.2190 ( 92)  0.1210 ( 96) -0.2084 (115) -0.1078 (129)  0.1536 (138)
          -0.1430 (143)
 CRD 45=   0.2096 (  2) -0.2049 ( 12) -0.2015 ( 15)  0.2064 ( 24) -0.1200 ( 31)
          -0.1288 ( 34)  0.1282 ( 38) -0.1288 ( 39)  0.1282 ( 41)  0.1180 ( 54)
           0.1342 ( 69) -0.1299 ( 70) -0.1299 ( 73)  0.1342 ( 77)  0.1150 ( 85)
          -0.1294 ( 86) -0.1259 ( 93)  0.1423 ( 97)  0.1389 (103)  0.1185 (110)
          -0.1198 (113)  0.1257 (127)  0.1235 (133)  0.1183 (136) -0.2470 (138)
          -0.1186 (139)  0.1034 (140)  0.1081 (142) -0.2542 (143) -0.1091 (144)
           0.1098 (146)  0.1117 (147)
 CRD 46=  -0.1469 (  4) -0.1669 (  6) -0.1469 (  7) -0.1669 (  8)  0.1230 (  9)
           0.1989 ( 16)  0.1989 ( 17) -0.1492 ( 19)  0.1947 ( 20)  0.1947 ( 22)
          -0.1514 ( 23)  0.1348 ( 25) -0.1194 ( 31) -0.1167 ( 54) -0.1082 ( 61)
          -0.1192 ( 68) -0.1192 ( 72) -0.1173 ( 75) -0.1173 ( 76) -0.1039 ( 79)
           0.1795 ( 85)  0.1737 ( 86)  0.1118 ( 87)  0.1809 ( 93)  0.1471 ( 98)
          -0.1384 (100) -0.1821 (113) -0.1053 (114)  0.1049 (117) -0.1105 (132)
           0.1908 (139) -0.1958 (144)
 CRD 47=  -0.2539 (  4)  0.2507 (  6) -0.2539 (  7)  0.2507 (  8)  0.1268 (  9)
           0.2307 ( 16)  0.2307 ( 17) -0.1100 ( 19) -0.2213 ( 20) -0.2213 ( 22)
           0.1068 ( 23) -0.1176 ( 25)  0.1052 ( 27)  0.1052 ( 28)  0.1734 ( 48)
           0.1734 ( 51) -0.1481 ( 65) -0.1481 ( 67)  0.1042 ( 68)  0.1042 ( 72)
          -0.1055 ( 75) -0.1055 ( 76)  0.1498 ( 78)  0.1498 ( 80) -0.1705 ( 81)
          -0.1705 ( 84)  0.1215 ( 92) -0.1156 ( 97) -0.1215 (103)  0.1179 (115)
 CRD 48=   0.2067 ( 10) -0.1981 ( 18)  0.1276 ( 55)  0.1001 ( 61)  0.1173 ( 88)
          -0.1209 ( 89)  0.2395 ( 91)  0.1065 ( 94) -0.2517 ( 95) -0.1611 ( 99)
           0.1606 (105) -0.1752 (110)  0.1628 (111) -0.1614 (112) -0.2978 (116)
           0.1925 (117)  0.3599 (118)  0.1162 (120) -0.1657 (121) -0.1410 (136)
           0.2462 (141) -0.2209 (142)
 CRD 49=   0.1977 (  4) -0.2161 (  6)  0.1977 (  7) -0.2161 (  8) -0.1197 (  9)
           0.2442 ( 16)  0.2442 ( 17) -0.1147 ( 19) -0.2379 ( 20) -0.2379 ( 22)
           0.1344 ( 23) -0.1262 ( 48) -0.1262 ( 51) -0.1273 ( 65) -0.1273 ( 67)
           0.1250 ( 68)  0.1250 ( 72) -0.1055 ( 75) -0.1055 ( 76)  0.1403 ( 78)
           0.1403 ( 80)  0.1099 ( 81)  0.1099 ( 84)  0.1078 ( 85) -0.1133 ( 86)
          -0.1340 ( 87) -0.1146 ( 93)  0.1223 ( 98)  0.1537 (100) -0.1039 (113)
          -0.1074 (114)  0.1244 (139)  0.1279 (144)
 CRD 50=  -0.1120 (  2)  0.1135 (  4) -0.1695 (  5)  0.1135 (  7) -0.1111 ( 12)
          -0.1132 ( 19) -0.1188 ( 20)  0.1720 ( 21) -0.1188 ( 22)  0.1037 ( 24)
           0.1012 ( 25)  0.1017 ( 32) -0.1404 ( 34)  0.1017 ( 35) -0.1188 ( 38)
          -0.1404 ( 39) -0.1188 ( 41) -0.1707 ( 44) -0.1707 ( 46) -0.1707 ( 47)
          -0.1707 ( 50)  0.1883 ( 62)  0.1883 ( 63)  0.1883 ( 64)  0.1883 ( 66)
           0.1394 ( 69)  0.1376 ( 70)  0.1376 ( 73) -0.1127 ( 75) -0.1127 ( 76)
           0.1394 ( 77)  0.1018 ( 81)  0.1018 ( 84)  0.1061 ( 87)  0.1342 ( 96)
           0.1427 ( 98) -0.1136 (100) -0.1317 (101) -0.1257 (114) -0.1443 (128)
           0.1370 (129)
 CRD 51=  -0.1232 ( 18) -0.1273 ( 89)  0.1723 ( 90) -0.2052 ( 91) -0.1158 ( 94)
          -0.1760 ( 99)  0.1748 (102)  0.1525 (104)  0.3154 (109)  0.2129 (116)
          -0.1928 (119) -0.1622 (120)  0.1357 (122) -0.4088 (123)  0.1351 (124)
          -0.1713 (125)  0.1352 (131)  0.1581 (132) -0.2495 (140)  0.1887 (141)
           0.1449 (142)
 CRD 52=   0.1122 (  2) -0.1014 (  4)  0.1309 (  5) -0.1014 (  7)  0.1143 ( 12)
           0.1049 ( 34)  0.1067 ( 38)  0.1049 ( 39)  0.1067 ( 41)  0.1145 ( 44)
           0.1145 ( 46)  0.1145 ( 47)  0.1145 ( 50)  0.1443 ( 62)  0.1443 ( 63)
           0.1443 ( 64)  0.1443 ( 66)  0.1075 ( 69)  0.1055 ( 70)  0.1055 ( 73)
           0.1075 ( 77) -0.1282 ( 97)  0.1264 (103)  0.1383 (106) -0.2033 (107)
           0.2266 (126) -0.1399 (130) -0.2259 (135)  0.2034 (137) -0.1389 (140)
           0.1281 (142)  0.2305 (146) -0.2302 (147)
 CRD 53=   0.1137 ( 15)  0.1087 ( 21)  0.1121 ( 24)  0.1122 ( 42)  0.1122 ( 43)
          -0.1126 ( 68)  0.1114 ( 71) -0.1126 ( 72)  0.1114 ( 74) -0.1151 ( 75)
          -0.1151 ( 76) -0.1423 ( 97)  0.1381 (103)  0.1120 (107) -0.2515 (108)
          -0.2736 (126)  0.2534 (134)  0.2729 (135) -0.1095 (137) -0.3009 (146)
           0.2993 (147)
 CRD 54=   0.1487 ( 10)  0.1344 ( 18) -0.1039 ( 33) -0.1012 ( 36) -0.1012 ( 37)
          -0.1039 ( 40)  0.2843 ( 88) -0.1992 ( 91)  0.2187 ( 95) -0.2751 ( 99)
          -0.2708 (104) -0.1533 (106)  0.2327 (109)  0.1441 (116) -0.1661 (118)
          -0.1249 (119) -0.2036 (123)  0.1640 (125)  0.1489 (130) -0.1684 (131)
           0.1071 (132)  0.2784 (140)  0.2098 (141) -0.2876 (142)

 THE DETERMINANT OF THE G MATRIX IS 10**(   -17)


                     --------------------
                     INTERNAL COORDINATES
                     --------------------

                 - - ATOMS - -         COORDINATE      COORDINATE
 NO.   TYPE    I  J  K  L  M  N        (BOHR,RAD)       (ANG,DEG)
 ----------------------------------------------------------------
   1 STRETCH   1  6                     2.4910330       1.3181980
   2 STRETCH   1  3                     2.8396684       1.5026879
   3 STRETCH   1 13                     2.0491803       1.0843796
   4 STRETCH   2  3                     2.6513340       1.4030256
   5 STRETCH   2 14                     2.0450407       1.0821890
   6 STRETCH   2 11                     2.6400917       1.3970764
   7 STRETCH   2  3                     2.6513340       1.4030256
   8 STRETCH   2 11                     2.6400917       1.3970764
   9 STRETCH   3 15                     2.0516819       1.0857034
  10 STRETCH   3 10                     3.7794518       1.9999999
  11 STRETCH   4  6                     2.8543460       1.5104550
  12 STRETCH   4 11                     2.8958699       1.5324285
  13 STRETCH   4  5                     2.3141710       1.2246066
  14 STRETCH   6  7                     2.0450140       1.0821749
  15 STRETCH   8 16                     2.0491198       1.0843476
  16 STRETCH   8  9                     2.6424186       1.3983078
  17 STRETCH   8  9                     2.6424186       1.3983078
  18 STRETCH   8 11                     3.7794521       2.0000001
  19 STRETCH   8 17                     2.0508809       1.0852795
  20 STRETCH   9 10                     2.6438875       1.3990851
  21 STRETCH   9 18                     2.0442211       1.0817553
  22 STRETCH   9 10                     2.6438875       1.3990851
  23 STRETCH  10 20                     2.0503099       1.0849774
  24 STRETCH  10 19                     2.0487038       1.0841274
  25 STRETCH  11 12                     2.0524154       1.0860916
  26 BEND      1  6  7                  2.1317568     122.1406695
  27 BEND      1  3  2                  2.0295656     116.2855452
  28 BEND      1  3  2                  2.0295656     116.2855452
  29 BEND      1  3 10                  1.7874407     102.4128079
  30 BEND      1  6  4                  2.1156515     121.2179026
  31 BEND      1  3 15                  2.0032288     114.7765548
  32 BEND      2 11  4                  2.0579725     117.9131395
  33 BEND      2  3 10                  1.7620033     100.9553504
  34 BEND      2 11 12                  2.0660758     118.3774254
  35 BEND      2 11  4                  2.0579725     117.9131395
  36 BEND      2 11  8                  1.7675800     101.2748748
  37 BEND      2 11  8                  1.7675800     101.2748748
  38 BEND      2  3 15                  2.0589102     117.9668649
  39 BEND      2 11 12                  2.0660758     118.3774254
  40 BEND      2  3 10                  1.7620033     100.9553504
  41 BEND      2  3 15                  2.0589102     117.9668649
  42 BEND      3 10  9                  1.8004471     103.1580222
  43 BEND      3 10  9                  1.8004471     103.1580222
  44 BEND      3  2 11                  2.0527631     117.6146600
  45 BEND      3  1  6                  2.1224120     121.6052512
  46 BEND      3  2 11                  2.0527631     117.6146600
  47 BEND      3  2 11                  2.0527631     117.6146600
  48 BEND      3  2 14                  2.0870010     119.5763491
  49 BEND      3  1 13                  2.0448539     117.1615004
  50 BEND      3  2 11                  2.0527631     117.6146600
  51 BEND      3  2 14                  2.0870010     119.5763491
  52 BEND      3 10 19                  1.6862445      96.6146920
  53 BEND      3 10 20                  1.7931631     102.7406773
  54 BEND      4 11 12                  1.9824123     113.5838573
  55 BEND      4 11  8                  1.7546341     100.5331275
  56 BEND      4  6  7                  2.0356935     116.6366431
  57 BEND      5  4 11                  2.1377160     122.4821033
  58 BEND      5  4  6                  2.1469875     123.0133231
  59 BEND      6  1 13                  2.1159189     121.2332204
  60 BEND      6  4 11                  1.9984674     114.5037462
  61 BEND      8 11 12                  1.7503464     100.2874594
  62 BEND      8  9 10                  2.0910050     119.8057586
  63 BEND      8  9 10                  2.0910050     119.8057586
  64 BEND      8  9 10                  2.0910050     119.8057586
  65 BEND      8  9 18                  2.0626270     118.1798205
  66 BEND      8  9 10                  2.0910050     119.8057586
  67 BEND      8  9 18                  2.0626270     118.1798205
  68 BEND      9 10 19                  2.0668958     118.4244046
  69 BEND      9 10 20                  2.0638001     118.2470338
  70 BEND      9  8 17                  2.0664307     118.3977602
  71 BEND      9  8 11                  1.8157078     104.0323914
  72 BEND      9 10 19                  2.0668958     118.4244046
  73 BEND      9  8 17                  2.0664307     118.3977602
  74 BEND      9  8 11                  1.8157078     104.0323914
  75 BEND      9  8 16                  2.0658879     118.3666568
  76 BEND      9  8 16                  2.0658879     118.3666568
  77 BEND      9 10 20                  2.0638001     118.2470338
  78 BEND     10  9 18                  2.0633000     118.2183800
  79 BEND     10  3 15                  1.7478488     100.1443622
  80 BEND     10  9 18                  2.0633000     118.2183800
  81 BEND     11  2 14                  2.0875329     119.6068260
  82 BEND     11  8 17                  1.7849550     102.2703893
  83 BEND     11  8 16                  1.6734660      95.8825383
  84 BEND     11  2 14                  2.0875329     119.6068260
  85 BEND     16  8 17                  1.9706005     112.9070924
  86 BEND     19 10 20                  1.9695290     112.8456974
  87 TORSION   1  3 10  9               1.0953929      62.7613904
  88 TORSION   1  3  2 11              -0.6537061     -37.4546021
  89 TORSION   1  6  4  5               3.1151603     178.4855371
  90 TORSION   1  3  2 14               2.8419272     162.8304320
  91 TORSION   1  6  4 11              -0.0207817      -1.1907010
  92 TORSION   1  3 10 19              -3.0710604    -175.9588005
  93 TORSION   1  3 10 20              -1.0591590     -60.6853409
  94 TORSION   2 11  4  5               2.8438581     162.9410638
  95 TORSION   2 11  4  6              -0.3033517     -17.3807731
  96 TORSION   2 11  8 17               3.1244855     179.0198318
  97 TORSION   2 11  8  9               0.9640790      55.2376565
  98 TORSION   2 11  8 16              -1.1513096     -65.9651805
  99 TORSION   2  3  1  6               0.3222661      18.4644894
 100 TORSION   2  3 10 19               1.1125644      63.7452462
 101 TORSION   2  3 10 20               3.1244658     179.0187057
 102 TORSION   2  3  1 13              -2.8203779    -161.5957528
 103 TORSION   2  3 10  9              -1.0041676     -57.5345629
 104 TORSION   3  2 11  4               0.6505505      37.2737976
 105 TORSION   3  1  6  7              -3.1182782    -178.6641797
 106 TORSION   3  2 11  8              -1.2423457     -71.1811643
 107 TORSION   3 10  9 18              -1.6178231     -92.6944337
 108 TORSION   3 10  9  8               1.1340866      64.9783764
 109 TORSION   3  1  6  4               0.0089559       0.5131380
 110 TORSION   3  2 11 12              -3.1332468    -179.5218160
 111 TORSION   4 11  2 14              -2.8451945    -163.0176346
 112 TORSION   4  6  1 13              -3.1315427    -179.4241779
 113 TORSION   4 11  8 17               1.0037967      57.5133147
 114 TORSION   4 11  8  9              -1.1566098     -66.2688606
 115 TORSION   4 11  8 16               3.0111869     172.5283024
 116 TORSION   5  4  6  7              -0.0400339      -2.2937721
 117 TORSION   5  4 11  8              -1.5390488     -88.1809995
 118 TORSION   5  4 11 12               0.3148897      18.0418517
 119 TORSION   6  1  3 10              -1.5803297     -90.5462221
 120 TORSION   6  1  3 15               2.8271369     161.9830116
 121 TORSION   6  4 11  8               1.5969268      91.4971636
 122 TORSION   6  4 11 12              -2.8323201    -162.2799853
 123 TORSION   7  6  1 13               0.0244085       1.3985044
 124 TORSION   7  6  4 11               3.1072095     178.0299898
 125 TORSION   8 11  2 14               1.5450947      88.5274035
 126 TORSION   8  9 10 19              -0.7008135     -40.1536586
 127 TORSION   8  9 10 20               3.0975979     177.4792835
 128 TORSION   9  8 11 12               3.0919840     177.1576344
 129 TORSION   9 10  3 15              -3.1216825    -178.8592326
 130 TORSION  10  3  2 11               1.2637968      72.4102214
 131 TORSION  10  3  2 14              -1.5237552     -87.3047446
 132 TORSION  10  3  1 13               1.5602115      89.3935357
 133 TORSION  10  9  8 17              -3.0830651    -176.6466196
 134 TORSION  10  9  8 11              -1.1179795     -64.0555080
 135 TORSION  10  9  8 16               0.7106704      40.7184172
 136 TORSION  11  2  3 15              -3.1377095    -179.7775115
 137 TORSION  11  8  9 18               1.6340783      93.6257910
 138 TORSION  12 11  8 17              -1.0307948     -59.0601904
 139 TORSION  12 11  8 16               0.9765954      55.9547974
 140 TORSION  12 11  2 14              -0.3458064     -19.8132481
 141 TORSION  13  1  3 15              -0.3155072     -18.0772306
 142 TORSION  14  2  3 15               0.3579238      20.5075225
 143 TORSION  15  3 10 20               1.0069509      57.6940360
 144 TORSION  15  3 10 19              -1.0049505     -57.5794235
 145 TORSION  16  8  9 18              -2.8204570    -161.6002838
 146 TORSION  17  8  9 18              -0.3310073     -18.9653206
 147 TORSION  18  9 10 20               0.3456882      19.8064734
 148 TORSION  18  9 10 19               2.8304621     162.1735313

     ------------------------------------------
     THE POINT GROUP IS C1 , NAXIS= 0, ORDER= 1
     ------------------------------------------

     DIMENSIONS OF THE SYMMETRY SUBSPACES ARE
 A   =   60

 ..... DONE SETTING UP THE RUN .....
 STEP CPU TIME =     0.08 TOTAL CPU TIME =          0.1 (      0.0 MIN)
 TOTAL WALL CLOCK TIME=          0.1 SECONDS, CPU UTILIZATION IS    72.73%


          -----------------------------
          STATIONARY POINT LOCATION RUN
          -----------------------------

 OBTAINING INITIAL HESSIAN, HESS=CALC    

     ---------------------------------
     HESSIAN MATRIX CONTROL PARAMETERS
     ---------------------------------
     METHOD=ANALYTIC   NVIB  =       2   VIBSIZ= 0.01000
     RDHESS=       F   PURIFY=       F   PRTIFC=       F
     VIBANL=       F   DECOMP=       F   PROJCT=       F
     SCLFAC= 1.00000   PRTSCN=       F   NPRT  =       0
     PULCOR=       F   NPUN  =       0   REDOVB=       T
     HSSTYP=GENERAL 
 Old integral subroutine is used

     ------------------------------
     CPHF RESPONSE SOLUTION OPTIONS
     ------------------------------
     POLAR  =       F     NWORD  =       0
     CPHF   =AO      

          ********************
          1 ELECTRON INTEGRALS
          ********************
 ...... END OF ONE-ELECTRON INTEGRALS ......
 STEP CPU TIME =     0.03 TOTAL CPU TIME =          0.1 (      0.0 MIN)
 TOTAL WALL CLOCK TIME=          0.1 SECONDS, CPU UTILIZATION IS    84.62%

          -------------
          GUESS OPTIONS
          -------------
          GUESS =HUCKEL            NORB  =       0          NORDER=       0
          MIX   =       F          PRTMO =       F          PUNMO =       F
          TOLZ  = 1.0E-08          TOLE  = 1.0E-05
          SYMDEN=       F          PURIFY=       F

 INITIAL GUESS ORBITALS GENERATED BY HUCKEL   ROUTINE.
 HUCKEL GUESS REQUIRES     53820 WORDS.

 SYMMETRIES FOR INITIAL GUESS ORBITALS FOLLOW.   BOTH SET(S).
    36 ORBITALS ARE OCCUPIED (   10 CORE ORBITALS).
    11=A       12=A       13=A       14=A       15=A       16=A       17=A   
    18=A       19=A       20=A       21=A       22=A       23=A       24=A   
    25=A       26=A       27=A       28=A       29=A       30=A       31=A   
    32=A       33=A       34=A       35=A       36=A       37=A       38=A   
    39=A       40=A       41=A       42=A       43=A       44=A       45=A   
    46=A   
 ...... END OF INITIAL ORBITAL SELECTION ......
 STEP CPU TIME =     0.01 TOTAL CPU TIME =          0.1 (      0.0 MIN)
 TOTAL WALL CLOCK TIME=          0.2 SECONDS, CPU UTILIZATION IS    80.00%

                    ----------------------
                    AO INTEGRAL TECHNOLOGY
                    ----------------------
     S,P,L SHELL ROTATED AXIS INTEGRALS, REPROGRAMMED BY
        KAZUYA ISHIMURA (IMS) AND JOSE SIERRA (SYNSTAR).
     S,P,D,L SHELL ROTATED AXIS INTEGRALS PROGRAMMED BY
        KAZUYA ISHIMURA (INSTITUTE FOR MOLECULAR SCIENCE).
     S,P,D,F,G SHELL TO TOTAL QUARTET ANGULAR MOMENTUM SUM 5,
        ERIC PROGRAM BY GRAHAM FLETCHER (ELORET AND NASA ADVANCED
        SUPERCOMPUTING DIVISION, AMES RESEARCH CENTER).
     S,P,D,F,G,L SHELL GENERAL RYS QUADRATURE PROGRAMMED BY
        MICHEL DUPUIS (PACIFIC NORTHWEST NATIONAL LABORATORY).

          --------------------
          2 ELECTRON INTEGRALS
          --------------------

 THE -PK- OPTION IS OFF, THE INTEGRALS ARE NOT IN SUPERMATRIX FORM.
 STORING   15000 INTEGRALS/RECORD ON DISK, USING 12 BYTES/INTEGRAL.
 TWO ELECTRON INTEGRAL EVALUATION REQUIRES   89821 WORDS OF MEMORY.
 SCHWARZ INEQUALITY OVERHEAD:      1797 INTEGRALS, T=        0.01
 II,JST,KST,LST =  1  1  1  1 NREC =         1 INTLOC =    1
 II,JST,KST,LST =  2  1  1  1 NREC =         1 INTLOC =    2
 II,JST,KST,LST =  3  1  1  1 NREC =         1 INTLOC =   34
 II,JST,KST,LST =  4  1  1  1 NREC =         1 INTLOC =  124
 II,JST,KST,LST =  5  1  1  1 NREC =         1 INTLOC = 1312
 II,JST,KST,LST =  6  1  1  1 NREC =         1 INTLOC = 1937
 II,JST,KST,LST =  7  1  1  1 NREC =         1 INTLOC = 6839
 II,JST,KST,LST =  8  1  1  1 NREC =         1 INTLOC = 8453
 II,JST,KST,LST =  9  1  1  1 NREC =         2 INTLOC = 5859
 II,JST,KST,LST = 10  1  1  1 NREC =         2 INTLOC = 9145
 II,JST,KST,LST = 11  1  1  1 NREC =         4 INTLOC =  860
 II,JST,KST,LST = 12  1  1  1 NREC =         4 INTLOC = 7761
 II,JST,KST,LST = 13  1  1  1 NREC =         7 INTLOC = 6678
 II,JST,KST,LST = 14  1  1  1 NREC =         8 INTLOC = 5759
 II,JST,KST,LST = 15  1  1  1 NREC =         9 INTLOC = 1398
 II,JST,KST,LST = 16  1  1  1 NREC =        14 INTLOC = 2451
 II,JST,KST,LST = 17  1  1  1 NREC =        15 INTLOC = 3866
 II,JST,KST,LST = 18  1  1  1 NREC =        22 INTLOC =12986
 II,JST,KST,LST = 19  1  1  1 NREC =        24 INTLOC = 6575
 II,JST,KST,LST = 20  1  1  1 NREC =        34 INTLOC =14651
 II,JST,KST,LST = 21  1  1  1 NREC =        37 INTLOC = 8874
 II,JST,KST,LST = 22  1  1  1 NREC =        52 INTLOC =12883
 II,JST,KST,LST = 23  1  1  1 NREC =        57 INTLOC = 3749
 II,JST,KST,LST = 24  1  1  1 NREC =        61 INTLOC =11634
 II,JST,KST,LST = 25  1  1  1 NREC =        66 INTLOC = 9406
 II,JST,KST,LST = 26  1  1  1 NREC =        71 INTLOC = 9945
 II,JST,KST,LST = 27  1  1  1 NREC =        77 INTLOC = 1096
 II,JST,KST,LST = 28  1  1  1 NREC =        82 INTLOC =12592
 II,JST,KST,LST = 29  1  1  1 NREC =        88 INTLOC =14928
 II,JST,KST,LST = 30  1  1  1 NREC =        95 INTLOC = 2434
 SCHWARZ INEQUALITY TEST SKIPPED       23113 INTEGRAL BLOCKS.
 TOTAL NUMBER OF NONZERO TWO-ELECTRON INTEGRALS =             1509575
        101 INTEGRAL RECORDS WERE STORED ON DISK FILE  8.
  ...... END OF TWO-ELECTRON INTEGRALS .....
 STEP CPU TIME =     0.29 TOTAL CPU TIME =          0.4 (      0.0 MIN)
 TOTAL WALL CLOCK TIME=          0.5 SECONDS, CPU UTILIZATION IS    91.11%

          --------------------------
                 RHF SCF CALCULATION
          --------------------------

     NUCLEAR ENERGY =       513.0665693914
     MAXIT =   30     NPUNCH=    2
     EXTRAP=T  DAMP=F  SHIFT=F  RSTRCT=F  DIIS=F  DEM=F  SOSCF=T
     DENSITY MATRIX CONV=  1.00E-05
     SOSCF WILL OPTIMIZE     864 ORBITAL ROTATIONS, SOGTOL=   0.250
     MEMORY REQUIRED FOR RHF ITERS=     59496 WORDS.

 ITER EX DEM     TOTAL ENERGY        E CHANGE  DENSITY CHANGE     ORB. GRAD
   1  0  0     -415.5512691022  -415.5512691022   0.529848147   0.000000000
          ---------------START SECOND ORDER SCF---------------
   2  1  0     -416.0530721494    -0.5018030472   0.292205685   0.060846208
   3  2  0     -416.0825078855    -0.0294357360   0.145230588   0.048078329
   4  3  0     -416.1130957715    -0.0305878860   0.017910563   0.006091797
   5  4  0     -416.1138007414    -0.0007049700   0.004763008   0.002108957
   6  5  0     -416.1138870690    -0.0000863275   0.001742125   0.000725052
   7  6  0     -416.1138984932    -0.0000114242   0.000710113   0.000208633
   8  7  0     -416.1138999593    -0.0000014662   0.000246022   0.000068283
   9  8  0     -416.1139001319    -0.0000001725   0.000148427   0.000019749
  10  9  0     -416.1139001654    -0.0000000335   0.000067619   0.000007489
  11 10  0     -416.1139001706    -0.0000000052   0.000022986   0.000002834
  12 11  0     -416.1139001714    -0.0000000008   0.000005514   0.000001241
  13 12  0     -416.1139001715    -0.0000000001   0.000002893   0.000000491

          -----------------
          DENSITY CONVERGED
          -----------------
     TIME TO FORM FOCK OPERATORS=       0.3 SECONDS (       0.0 SEC/ITER)
     TIME TO SOLVE SCF EQUATIONS=       0.1 SECONDS (       0.0 SEC/ITER)

 FINAL RHF ENERGY IS     -416.1139001715 AFTER  13 ITERATIONS

          ------------
          EIGENVECTORS
          ------------

                      1          2          3          4          5
                  -20.2570   -11.1154   -11.0556   -11.0481   -11.0465
                     A          A          A          A          A   
    1  C  1  S    0.000005  -0.000259  -0.011779   0.004567  -0.099174
    2  C  1  S    0.000055   0.000119  -0.006459   0.000195  -0.003664
    3  C  1  X    0.000075  -0.000092   0.004199  -0.000032   0.000083
    4  C  1  Y   -0.000006  -0.000020  -0.000840  -0.000048   0.000258
    5  C  1  Z    0.000008   0.000003   0.000520   0.000002  -0.000118
    6  C  2  S    0.000004  -0.000235   0.003911  -0.002370   0.005381
    7  C  2  S    0.000038   0.000097  -0.006862   0.001127  -0.006815
    8  C  2  X   -0.000063   0.000032  -0.002998   0.000187  -0.000905
    9  C  2  Y   -0.000033  -0.000001  -0.002408  -0.000799   0.004223
   10  C  2  Z   -0.000009  -0.000023   0.002449   0.000320  -0.001065
   11  C  3  S    0.000003  -0.000305   0.991654  -0.001316   0.002780
   12  C  3  S    0.000006  -0.000092   0.036160   0.000022   0.000786
   13  C  3  X   -0.000007  -0.000054  -0.000168  -0.000036   0.000353
   14  C  3  Y    0.000041   0.000090  -0.000052  -0.000047   0.000077
   15  C  3  Z   -0.000010  -0.000062   0.001590  -0.000006   0.000098
   16  C  4  S    0.000548   0.992569   0.000327   0.000118   0.002728
   17  C  4  S   -0.007181   0.032713  -0.000015   0.000942  -0.005572
   18  C  4  X   -0.001673   0.000215  -0.000008  -0.000754   0.003914
   19  C  4  Y    0.005423  -0.000313  -0.000130   0.000272  -0.001011
   20  C  4  Z   -0.002903   0.000110   0.000091   0.000009   0.000577
   21  O  5  S    0.994267   0.000164   0.000006  -0.000010  -0.000023
   22  O  5  S    0.025983  -0.005779  -0.000058   0.000034   0.000257
   23  O  5  X   -0.001469   0.000438   0.000014   0.000004  -0.000211
   24  O  5  Y    0.004762  -0.001467  -0.000032   0.000007   0.000083
   25  O  5  Z   -0.002555   0.000796   0.000012  -0.000047  -0.000032
   26  C  6  S   -0.000025  -0.001002  -0.000889   0.000454  -0.003160
   27  C  6  S    0.000271  -0.005699   0.000263  -0.000016   0.000845
   28  C  6  X    0.000264   0.002602  -0.000120  -0.000020  -0.000109
   29  C  6  Y   -0.000383   0.002882   0.000062  -0.000052   0.000373
   30  C  6  Z    0.000216  -0.001393  -0.000006  -0.000010  -0.000191
   31  H  7  S   -0.000192   0.000009  -0.000042   0.000012  -0.000071
   32  C  8  S   -0.000010  -0.000506   0.000234   0.977676   0.167962
   33  C  8  S    0.000050   0.000008   0.000079   0.035960   0.003513
   34  C  8  X    0.000059  -0.000363  -0.000005   0.000177  -0.000334
   35  C  8  Y   -0.000019  -0.000017   0.000015   0.000129  -0.001099
   36  C  8  Z    0.000029  -0.000125  -0.000023  -0.001013  -0.002446
   37  C  9  S    0.000001  -0.000216  -0.000906   0.003980  -0.000180
   38  C  9  S   -0.000024  -0.000025   0.000179  -0.006647  -0.001121
   39  C  9  X   -0.000001  -0.000060  -0.000055   0.002692   0.000391
   40  C  9  Y    0.000001  -0.000028   0.000194   0.002413   0.000351
   41  C  9  Z   -0.000002  -0.000153  -0.000123  -0.002673  -0.000438
   42  C 10  S   -0.000000   0.000044  -0.027260  -0.014496  -0.004442
   43  C 10  S    0.000005   0.000025  -0.003619  -0.000417  -0.000091
   44  C 10  X   -0.000001   0.000017  -0.000400   0.000082   0.000030
   45  C 10  Y   -0.000002  -0.000013  -0.001013   0.000051  -0.000023
   46  C 10  Z    0.000002   0.000037  -0.002230  -0.000089  -0.000021
   47  C 11  S   -0.000024  -0.001725  -0.004236  -0.167527   0.972907
   48  C 11  S    0.000268  -0.005444  -0.000071  -0.008622   0.034734
   49  C 11  X    0.000010  -0.003798  -0.000110   0.000320  -0.000003
   50  C 11  Y   -0.000406   0.001101  -0.000042   0.000841   0.001520
   51  C 11  Z    0.000252  -0.000861   0.000124   0.002047   0.001151
   52  H 12  S   -0.000175  -0.000012  -0.000083   0.001306  -0.006759
   53  H 13  S   -0.000021  -0.000038   0.000159  -0.000018   0.000627
   54  H 14  S   -0.000021  -0.000042   0.000079   0.000060   0.000086
   55  H 15  S   -0.000016  -0.000027  -0.006912   0.000022  -0.000140
   56  H 16  S    0.000015  -0.000142   0.000006  -0.006790  -0.001117
   57  H 17  S   -0.000025  -0.000241  -0.000002  -0.006795  -0.001055
   58  H 18  S    0.000023  -0.000135   0.000036   0.000047   0.000058
   59  H 19  S   -0.000001  -0.000001   0.000251   0.000051   0.000043
   60  H 20  S   -0.000000   0.000004   0.000297  -0.000003   0.000024

                      6          7          8          9         10
                  -11.0462   -11.0458   -11.0237   -11.0193   -11.0106
                     A          A          A          A          A   
    1  C  1  S    0.982082   0.098117  -0.019912   0.001183   0.000920
    2  C  1  S    0.035582   0.003375  -0.008931   0.000144  -0.000060
    3  C  1  X    0.000409   0.000076  -0.001360   0.000016   0.000071
    4  C  1  Y   -0.001375  -0.000077   0.003904   0.000081   0.000168
    5  C  1  Z    0.000727   0.000151  -0.002232  -0.000144   0.000108
    6  C  2  S   -0.000504  -0.001586  -0.006764   0.992070   0.003672
    7  C  2  S   -0.000623  -0.000340  -0.000348   0.036679   0.000136
    8  C  2  X   -0.000169  -0.000013  -0.000204   0.000629  -0.000007
    9  C  2  Y    0.000410   0.000106   0.000058  -0.001152   0.000077
   10  C  2  Z   -0.000169   0.000093  -0.000026  -0.001667   0.000136
   11  C  3  S    0.010248   0.029298   0.000685  -0.003096   0.000874
   12  C  3  S   -0.005119  -0.002099   0.000420  -0.007156  -0.000018
   13  C  3  X   -0.003990  -0.000054   0.000140   0.003007  -0.000053
   14  C  3  Y    0.000823   0.001128   0.000065   0.002337   0.000362
   15  C  3  Z   -0.001026   0.002185   0.000022  -0.002535  -0.000031
   16  C  4  S    0.000614   0.000033   0.001991   0.000284   0.000271
   17  C  4  S   -0.000445  -0.000048  -0.005891   0.000148  -0.000061
   18  C  4  X    0.000474   0.000052  -0.002767  -0.000064   0.000018
   19  C  4  Y   -0.000225  -0.000020  -0.002837  -0.000124  -0.000028
   20  C  4  Z    0.000127  -0.000006   0.001348  -0.000025   0.000194
   21  O  5  S    0.000010   0.000001  -0.000022   0.000009   0.000001
   22  O  5  S   -0.000085  -0.000004   0.000251  -0.000083  -0.000023
   23  O  5  X   -0.000024  -0.000003   0.000132   0.000032   0.000003
   24  O  5  Y   -0.000047  -0.000004   0.000161  -0.000022  -0.000025
   25  O  5  Z    0.000026   0.000001  -0.000074   0.000033  -0.000026
   26  C  6  S    0.020101   0.002166   0.991941   0.006849   0.001385
   27  C  6  S   -0.007289  -0.000664   0.036535   0.000176   0.000044
   28  C  6  X    0.001310   0.000111  -0.000699   0.000178   0.000079
   29  C  6  Y   -0.003766  -0.000347   0.001542  -0.000049   0.000036
   30  C  6  Z    0.002141   0.000178  -0.000817  -0.000044   0.000092
   31  H  7  S   -0.000002  -0.000002  -0.006869  -0.000103  -0.000033
   32  C  8  S    0.010780   0.016268  -0.000187   0.001559  -0.003165
   33  C  8  S    0.000159   0.000680   0.000053   0.000060  -0.007221
   34  C  8  X   -0.000002   0.000033   0.000039   0.000045  -0.002785
   35  C  8  Y   -0.000063  -0.000138   0.000029  -0.000444  -0.002426
   36  C  8  Z   -0.000222  -0.000071   0.000001  -0.000006   0.002783
   37  C  9  S   -0.001337   0.004041  -0.001309  -0.003620   0.992095
   38  C  9  S    0.000511  -0.006916  -0.000080  -0.000093   0.036742
   39  C  9  X   -0.000156   0.000815  -0.000010   0.000002  -0.000205
   40  C  9  Y    0.000347  -0.004303  -0.000080  -0.000077   0.001036
   41  C  9  Z   -0.000277   0.000808  -0.000157  -0.000144   0.001880
   42  C 10  S   -0.099221   0.986719  -0.000196   0.001730  -0.003341
   43  C 10  S   -0.003600   0.035793   0.000048   0.000061  -0.007206
   44  C 10  X   -0.000292  -0.000232   0.000025   0.000230  -0.000784
   45  C 10  Y    0.000148  -0.001145  -0.000035   0.000178   0.004468
   46  C 10  Z   -0.000057  -0.000963   0.000028  -0.000351  -0.000869
   47  C 11  S    0.097889   0.011648   0.001240  -0.004819   0.000984
   48  C 11  S    0.003460   0.000455   0.000251  -0.007301   0.000005
   49  C 11  X   -0.000127  -0.000015  -0.000011   0.000947  -0.000200
   50  C 11  Y    0.000048   0.000066  -0.000004  -0.004377  -0.000161
   51  C 11  Z    0.000155   0.000061   0.000048   0.001032   0.000222
   52  H 12  S   -0.000735  -0.000092  -0.000092   0.000122  -0.000139
   53  H 13  S   -0.006776  -0.000637   0.000271  -0.000098  -0.000027
   54  H 14  S   -0.000070   0.000077  -0.000011  -0.006906  -0.000035
   55  H 15  S   -0.000052  -0.000069  -0.000097   0.000106  -0.000143
   56  H 16  S   -0.000067  -0.000160   0.000001  -0.000191   0.000044
   57  H 17  S   -0.000051  -0.000214   0.000001  -0.000171   0.000106
   58  H 18  S   -0.000133   0.000042  -0.000254  -0.000001  -0.006966
   59  H 19  S    0.000550  -0.006868   0.000005  -0.000203   0.000048
   60  H 20  S    0.000565  -0.006873   0.000009  -0.000174   0.000105

                     11         12         13         14         15
                   -1.3094    -1.0920    -1.0155    -0.9722    -0.9331
                     A          A          A          A          A   
    1  C  1  S   -0.006045  -0.099345   0.097007   0.105160  -0.005841
    2  C  1  S    0.014397   0.252844  -0.254399  -0.282136   0.020051
    3  C  1  X    0.000098  -0.036272  -0.004816  -0.043461  -0.085650
    4  C  1  Y   -0.006037  -0.037104   0.046614   0.059846   0.080239
    5  C  1  Z    0.003240   0.015817  -0.033714  -0.027720  -0.051349
    6  C  2  S   -0.005613  -0.109389   0.013296  -0.128513  -0.046211
    7  C  2  S    0.012931   0.275046  -0.034733   0.342985   0.126098
    8  C  2  X    0.003168   0.052954  -0.022153   0.011927   0.032188
    9  C  2  Y   -0.005020  -0.022956  -0.016967  -0.065705   0.106530
   10  C  2  Z    0.000589  -0.030243  -0.001737   0.004831  -0.067513
   11  C  3  S   -0.003296  -0.111992   0.037215  -0.019240  -0.130692
   12  C  3  S    0.007885   0.295028  -0.099839   0.049467   0.371568
   13  C  3  X    0.000688   0.002397  -0.041363  -0.096301  -0.029429
   14  C  3  Y   -0.002264  -0.044585   0.000876  -0.023837   0.009130
   15  C  3  Z    0.001741   0.033977  -0.035993   0.047735   0.004103
   16  C  4  S   -0.127531  -0.034610   0.022572  -0.006333   0.069040
   17  C  4  S    0.295789   0.096353  -0.064020   0.017445  -0.203714
   18  C  4  X    0.039738  -0.027874  -0.028125  -0.101346   0.037425
   19  C  4  Y   -0.130848   0.074217  -0.052994  -0.012900  -0.098357
[...]
 18   H            X  0.03110564  0.04029359 -0.05259647  0.00231356  0.00039494
                   Y  0.09967641 -0.02565051 -0.17111782  0.00654440  0.00313725
                   Z -0.05054126 -0.00865411  0.09253332 -0.00396009 -0.00213218
 19   H            X  0.09411719 -0.17358311  0.15108633 -0.00201839 -0.00124716
                   Y  0.14361156 -0.24670891  0.21889175 -0.00818117 -0.00403379
                   Z -0.22409376  0.28706624 -0.22934543 -0.01048882 -0.00454647
 20   H            X -0.24237863  0.35975065 -0.26240954 -0.00040233 -0.00028783
                   Y  0.15052512 -0.25607606  0.11371371 -0.00187617 -0.00112422
                   Z -0.13411312  0.11293332 -0.06646438 -0.00545933 -0.00330419

 TRANS. SAYVETZ    X  0.00000006 -0.00000056 -0.00000069 -0.00000211 -0.00000004
                   Y  0.00000241 -0.00000252  0.00000164  0.00000125  0.00000110
                   Z -0.00000020  0.00000046 -0.00000206 -0.00000124 -0.00000209
               TOTAL  0.00000242  0.00000263  0.00000272  0.00000275  0.00000237

   ROT. SAYVETZ    X -0.00007396  0.00002035 -0.00009896  0.00002071  0.00003679
                   Y  0.00001638 -0.00002296 -0.00001555  0.00000578  0.00001434
                   Z  0.00009004  0.00000086 -0.00007013  0.00000340 -0.00000294
               TOTAL  0.00011767  0.00003069  0.00012229  0.00002177  0.00003960

                           51          52          53          54          55
       FREQUENCY:      3621.90     3625.39     3681.77     3686.40     3704.43  
        SYMMETRY:         A           A           A           A           A   
    REDUCED MASS:      1.06357     1.06536     1.09213     1.09370     1.09092
    IR INTENSITY:      0.18788     0.01800     0.19974     0.07205     0.57241

  1   C            X -0.00001581  0.00009901 -0.00239648  0.00607525 -0.04544649
                   Y  0.00016283 -0.00003458 -0.00386364  0.00944525 -0.04620590
                   Z  0.00014219  0.00016872  0.00196194 -0.00465883  0.02129781
  2   C            X -0.00255783 -0.00007960  0.02218133 -0.00788521 -0.00545279
                   Y  0.00086487  0.00028312 -0.00579698  0.00719760  0.00278397
                   Z  0.00026760 -0.00012054 -0.00229328 -0.00146535  0.00023684
  3   C            X  0.00105000  0.00002200 -0.00665186  0.01349298  0.00474444
                   Y -0.00212308 -0.00041444  0.03023184 -0.07127182 -0.01197436
                   Z  0.00047094  0.00090145 -0.00663043  0.01545368  0.00270024
  4   C            X -0.00000577 -0.00004826  0.00168202  0.00123403 -0.00166468
                   Y  0.00013731 -0.00003859 -0.00002842  0.00004527 -0.00064996
                   Z  0.00019755 -0.00013176  0.00015682  0.00003008  0.00019302
  5   O            X -0.00002036  0.00000378 -0.00011848 -0.00015417  0.00022972
                   Y -0.00000043 -0.00000514  0.00002597  0.00005107 -0.00001363
                   Z -0.00003595  0.00001673 -0.00000095 -0.00001901  0.00003011
  6   C            X -0.00021711 -0.00005887  0.00156688 -0.00510020  0.04424326
                   Y  0.00001183  0.00005586  0.00014902  0.00021142 -0.00527856
                   Z -0.00008037  0.00000614  0.00021499 -0.00077718  0.00809673
  7   H            X  0.00225424  0.00077527 -0.01318329  0.05831310 -0.51067027
                   Y -0.00055020 -0.00015807  0.00280010 -0.01077709  0.09529383
                   Z  0.00038431  0.00008385 -0.00269204  0.01230918 -0.11326478
  8   C            X -0.03661940  0.03402172 -0.00193633  0.00136122  0.00048100
                   Y -0.03461730  0.03222218 -0.00191750  0.00048803  0.00010375
                   Z  0.00632603 -0.00511580  0.00021554 -0.00080645 -0.00017705
  9   C            X -0.00503154 -0.00213287  0.00374022 -0.00175008 -0.00173550
                   Y  0.00144022 -0.00572666 -0.00169692  0.00060710  0.00073213
                   Z -0.00070442  0.00304452 -0.00089245  0.00047473  0.00035753
 10   C            X -0.01385551 -0.01554614 -0.00107037 -0.00003542  0.00008464
                   Y  0.03370831  0.03689245  0.00248590 -0.00028289 -0.00019275
                   Z -0.02850519 -0.03224784 -0.00146901  0.00092002  0.00035360
 11   C            X  0.00206012 -0.00026231 -0.04738388 -0.02282428 -0.00139874
                   Y  0.00109658 -0.00079595 -0.03809059 -0.01948704 -0.00151264
                   Z -0.00113431 -0.00035124  0.04157703  0.02103906  0.00140859
 12   H            X -0.01859578 -0.00097112  0.53609326  0.26438261  0.01673538
                   Y -0.01384756 -0.00010908  0.41742595  0.20713613  0.01274089
                   Z  0.01711051  0.00171293 -0.48187493 -0.23774292 -0.01451841
 13   H            X -0.00138461  0.00011966  0.03698848 -0.09063847  0.51312001
                   Y -0.00106042  0.00023338  0.03824965 -0.09471440  0.52710989
                   Z  0.00043309 -0.00009094 -0.01832736  0.04497381 -0.24348964
 14   H            X  0.03107154  0.00172099 -0.26165246  0.10801067  0.06674784
                   Y -0.01101483 -0.00078610  0.09302654 -0.03991399 -0.02501939
                   Z -0.00287034 -0.00006955  0.02535759 -0.00964182 -0.00672374
 15   H            X -0.00560131 -0.00024120  0.06988291 -0.16156384 -0.02969071
                   Y  0.02686671  0.00069169 -0.34598268  0.80609467  0.13688792
                   Z -0.00434428 -0.00115788  0.06705613 -0.15778615 -0.02706578
 16   H            X  0.50850226 -0.46888225  0.02634787 -0.01375412 -0.00401427
                   Y -0.08494006  0.07699647 -0.00359352  0.00259742  0.00069055
                   Z  0.03661493 -0.03506320  0.00120808 -0.00056367 -0.00010236
 17   H            X -0.10850097  0.09987366 -0.00472296  0.00115215  0.00007400
                   Y  0.46595487 -0.42745223  0.02318650 -0.00311231 -0.00111667
                   Z -0.08155258  0.07527381 -0.00486872  0.00185773  0.00032909
 18   H            X  0.09471326  0.00569759 -0.04074015  0.01875699  0.01933550
                   Y -0.03746725 -0.00548665  0.01604448 -0.00724042 -0.00767159
                   Z -0.01856202  0.00038214  0.00760862 -0.00353408 -0.00363895
 19   H            X  0.44303918  0.48814069  0.02718737 -0.00613888 -0.00325162
                   Y -0.13807406 -0.15179144 -0.00943928  0.00254529  0.00073204
                   Z  0.05961517  0.06766966  0.00349844 -0.00112551 -0.00134481
 20   H            X -0.28800284 -0.31697767 -0.01391907  0.00766992  0.00113424
                   Y -0.21397639 -0.23555883 -0.01152764  0.00633251  0.00110552
                   Z  0.26783719  0.29399662  0.01201443 -0.00814833 -0.00105396

 TRANS. SAYVETZ    X  0.00000004 -0.00000012  0.00000004  0.00000071  0.00000014
                   Y -0.00000052  0.00000031  0.00000092 -0.00000080 -0.00000034
                   Z  0.00000053  0.00000043 -0.00000078 -0.00000114  0.00000083
               TOTAL  0.00000075  0.00000054  0.00000120  0.00000156  0.00000091

   ROT. SAYVETZ    X  0.00001441  0.00001018  0.00000550  0.00004607  0.00000442
                   Y  0.00002469 -0.00000342 -0.00002231 -0.00001175  0.00000388
                   Z -0.00001830 -0.00000715  0.00000749 -0.00001653 -0.00000612
               TOTAL  0.00003394  0.00001290  0.00002416  0.00005033  0.00000849

                           56          57          58          59          60
       FREQUENCY:      3715.13     3721.58     3735.88     3764.11     3765.89  
        SYMMETRY:         A           A           A           A           A   
    REDUCED MASS:      1.09784     1.09777     1.10631     1.11614     1.11659
    IR INTENSITY:      0.72191     0.05345     0.04583     0.02053     0.03305

  1   C            X  0.00091356 -0.00047182 -0.02797006  0.00003388  0.00001687
                   Y -0.00008770 -0.00212146 -0.03904632  0.00008408  0.00006980
                   Z  0.00010079  0.00106083  0.01891958  0.00009007  0.00012248
  2   C            X -0.03826140 -0.06493909  0.00625399 -0.00020537  0.00166265
                   Y  0.01392142  0.02445253 -0.00229008  0.00002677 -0.00073764
                   Z  0.00440476  0.00872827 -0.00079442  0.00007696 -0.00039531
  3   C            X -0.00064488 -0.00029446  0.00231800  0.00016743  0.00039155
                   Y  0.01441205  0.01628949 -0.00467424  0.00062204 -0.00012324
                   Z -0.00481146 -0.00488546  0.00149070 -0.00026717 -0.00024492
  4   C            X  0.00053936  0.00066810  0.00143452  0.00001032  0.00000447
                   Y -0.00011505 -0.00022784  0.00162707 -0.00007123  0.00006409
                   Z  0.00009042  0.00006421 -0.00075522 -0.00013332  0.00010785
  5   O            X -0.00009949 -0.00007931 -0.00007662 -0.00001833  0.00001127
                   Y  0.00008988  0.00008661 -0.00030965  0.00002456 -0.00002193
                   Z -0.00005452 -0.00003729  0.00015751 -0.00000189 -0.00000138
  6   C            X -0.00405603 -0.00654917 -0.06791929  0.00010505  0.00009649
                   Y  0.00089916  0.00179699  0.01953757 -0.00001836 -0.00003215
                   Z -0.00108867 -0.00170542 -0.01876387  0.00006687 -0.00000147
  7   H            X  0.04669069  0.07505110  0.74822444 -0.00109502 -0.00096172
                   Y -0.00893845 -0.01422617 -0.14167976  0.00009066  0.00010635
                   Z  0.01024061  0.01668199  0.16738477 -0.00037445 -0.00029032
  8   C            X  0.01016203 -0.00612507  0.00022018  0.05217507 -0.03961139
                   Y  0.00039662  0.00180147 -0.00010486 -0.05154003  0.04038884
                   Z -0.00209533 -0.00010306  0.00007021  0.01133560 -0.00907919
  9   C            X -0.06505278  0.03928990 -0.00084874  0.00160298 -0.00878892
                   Y  0.02661998 -0.01643992  0.00039714  0.00040255  0.00386265
                   Z  0.01403898 -0.00918633  0.00025091 -0.00087329  0.00227905
 10   C            X  0.00798070 -0.00600244  0.00017961 -0.05466052 -0.06991868
                   Y -0.00650141  0.00186492 -0.00011138 -0.00720861 -0.01031559
                   Z  0.00161762 -0.00013241  0.00010394  0.01665459  0.02197251
 11   C            X -0.00690502 -0.00771270  0.00152482  0.00009136  0.00034927
                   Y -0.00896864 -0.01026054  0.00152645  0.00059319 -0.00013518
                   Z  0.00702010  0.00861683 -0.00128487 -0.00029890 -0.00019444
 12   H            X  0.08485366  0.09835718 -0.01442261 -0.00406752 -0.00133685
                   Y  0.06871227  0.07857315 -0.01155093 -0.00263331 -0.00152729
                   Z -0.07521131 -0.08833638  0.01310446  0.00275519  0.00200614
 13   H            X -0.00543493  0.01417866  0.34855607 -0.00020133  0.00005387
                   Y -0.00453325  0.01545534  0.36088292 -0.00038624 -0.00009460
                   Z  0.00181957 -0.00728692 -0.16668721  0.00009569  0.00002551
 14   H            X  0.42157686  0.72525592 -0.06614839  0.00193436 -0.01732004
                   Y -0.15161389 -0.26161227  0.02418991 -0.00066384  0.00622120
                   Z -0.04222635 -0.07398900  0.00681826 -0.00020576  0.00172544
 15   H            X  0.02856956  0.03176264 -0.01115624  0.00163266  0.00036873
                   Y -0.14696657 -0.16406145  0.04979794 -0.00597977  0.00170622
                   Z  0.03144380  0.03345288 -0.01045040  0.00141687  0.00002628
 16   H            X -0.08724822  0.05246563 -0.00238066 -0.49878219  0.37904039
                   Y  0.01548822 -0.00886165  0.00029485  0.07961930 -0.06013924
                   Z -0.00786721  0.00616435 -0.00035901 -0.03853224  0.02851473
 17   H            X -0.00151526  0.00577164 -0.00031232 -0.11790393  0.09209776
                   Y  0.00530757 -0.02320935  0.00129131  0.52349115 -0.40623260
                   Z  0.00242690  0.00384212 -0.00025036 -0.09138257  0.07121977
 18   H            X  0.73376654 -0.44621223  0.00980369 -0.01664226  0.10511394
                   Y -0.28930869  0.17622006 -0.00383456  0.00258526 -0.04304039
                   Z -0.13949211  0.08543520 -0.00181188  0.00517248 -0.02169652
 19   H            X -0.08507784  0.05123379 -0.00154506  0.37725091  0.47679816
                   Y  0.02460572 -0.01385928  0.00060087 -0.11781884 -0.15004134
                   Z -0.01196734  0.00847371 -0.00023148  0.05509194  0.06940942
 20   H            X  0.00040906  0.01417823  0.00037905  0.26625956  0.34475021
                   Y  0.00268262  0.00993756  0.00042981  0.20130013  0.25996907
                   Z  0.00216849 -0.01310651 -0.00093189 -0.25134103 -0.32435986

 TRANS. SAYVETZ    X -0.00000102  0.00000040 -0.00000010 -0.00000001 -0.00000003
                   Y -0.00000132 -0.00000023 -0.00000004  0.00000002 -0.00000012
                   Z  0.00000028  0.00000012 -0.00000035 -0.00000012  0.00000017
               TOTAL  0.00000169  0.00000047  0.00000037  0.00000012  0.00000021

   ROT. SAYVETZ    X -0.00000042 -0.00000507  0.00000022 -0.00000227  0.00000205
                   Y -0.00000142 -0.00001046  0.00000440 -0.00000228  0.00003101
                   Z  0.00000403  0.00000493 -0.00000150 -0.00000855 -0.00001601
               TOTAL  0.00000430  0.00001262  0.00000465  0.00000914  0.00003496

 REFERENCE ON SAYVETZ CONDITIONS - A. SAYVETZ, J.CHEM.PHYS., 7, 383-389(1939).

 NOTE - THE MODES J,K ARE ORTHONORMALIZED ACCORDING TO
 SUM ON I   M(I) * (X(I,J)*X(I,K) + Y(I,J)*Y(I,K) + Z(I,J)*Z(I,K)) = DELTA(J,K)

  MODE FREQ(CM**-1)  SYMMETRY  RED. MASS  IR INTENS.
     1     903.465    A       10.369250    0.125694
     2       3.630    A        4.150424    0.000873
     3       2.874    A        5.409889    0.014067
     4       1.215    A        4.636197    0.015577
     5       0.034    A        6.664870    0.000008
     6       0.151    A        6.813518    0.000102
     7       0.220    A        6.730982    0.000069
     8     110.230    A        5.545860    0.039703
     9     235.472    A        3.059433    0.032468
    10     263.005    A        3.847045    0.023392
    11     395.091    A        4.417547    0.027239
    12     467.500    A        2.318163    0.049149
    13     479.299    A        2.984081    0.003409
    14     498.670    A        4.837987    0.195116
    15     525.736    A        6.025187    0.022166
    16     574.573    A        2.469673    0.099055
    17     636.572    A        5.140945    0.006388
    18     651.609    A        2.242145    0.201277
    19     692.856    A        5.718270    0.027262
    20     839.743    A        4.131427    0.080636
    21     856.128    A        3.173576    0.101797
    22     911.789    A        1.471836    0.238189
    23     936.983    A        1.710929    4.836168
    24     942.182    A        1.840480    0.315263
    25    1008.283    A        1.886237    0.115041
    26    1060.045    A        1.294305    0.100280
    27    1100.236    A        3.774512    0.036167
    28    1107.781    A        1.467930    0.217582
    29    1148.711    A        1.954733    0.072095
    30    1207.455    A        1.280190    0.041191
    31    1211.703    A        1.600343    0.185810
    32    1244.341    A        1.132006    0.015446
    33    1250.621    A        1.257752    0.040481
    34    1287.559    A        1.128209    0.052486
    35    1323.487    A        1.216777    0.091608
    36    1349.476    A        1.151136    0.073268
    37    1406.186    A        1.235381    0.123456
    38    1422.469    A        1.597944    0.648180
    39    1447.471    A        1.321878    0.131002
    40    1456.640    A        1.355898    0.069313
    41    1490.906    A        1.804862    0.005035
    42    1600.183    A        1.626524    0.233858
    43    1638.351    A        1.722708    0.128539
    44    1664.232    A        1.625097    0.002443
    45    1718.113    A        2.498830    0.393610
    46    1763.155    A        1.939921    0.024656
    47    1821.464    A        1.223570    0.378154
    48    1852.662    A        2.088793    0.025875
    49    2014.866    A        7.168246    0.060362
    50    2084.264    A       10.617448    1.652402
    51    3621.904    A        1.063569    0.187876
    52    3625.390    A        1.065361    0.018003
    53    3681.768    A        1.092127    0.199739
    54    3686.404    A        1.093704    0.072046
    55    3704.431    A        1.090917    0.572406
    56    3715.135    A        1.097843    0.721909
    57    3721.581    A        1.097766    0.053452
    58    3735.882    A        1.106315    0.045828
    59    3764.115    A        1.116144    0.020532
    60    3765.895    A        1.116594    0.033047

     -------------------------------
     THERMOCHEMISTRY AT T=  298.15 K
     -------------------------------

 USING IDEAL GAS, RIGID ROTOR, HARMONIC NORMAL MODE APPROXIMATIONS.
 P=  1.01325E+05 PASCAL.
 ALL FREQUENCIES ARE SCALED BY   1.00000
 THE MOMENTS OF INERTIA ARE (IN AMU*BOHR**2)
            864.19607          1246.83050          1514.19577
 THE ROTATIONAL SYMMETRY NUMBER IS  1.0
 THE ROTATIONAL CONSTANTS ARE (IN GHZ)
      2.08643     1.44614     1.19079
   1 IMAGINARY FREQUENCY VIBRATION(S) IS(ARE) EXCLUDED
     FROM THE FOLLOWING THERMOCHEMICAL ANALYSIS.
      8 -     60 VIBRATIONAL MODES ARE USED IN THERMOCHEMISTRY.
 THE HARMONIC ZERO POINT ENERGY IS (SCALED BY   1.000)
        0.193008 HARTREE/MOLECULE    42360.301033 CM**-1/MOLECULE 
      121.114300 KCAL/MOL              506.742230 KJ/MOL

               Q               LN Q
 ELEC.     1.00000E+00       0.000000
 TRANS.    6.10192E+07      17.926699
 ROT.      4.57238E+05      13.032959
 VIB.      1.17610E+01       2.464791
 TOT.      3.28136E+14      33.424450

              E         H         G         CV        CP        S
           KJ/MOL    KJ/MOL    KJ/MOL   J/MOL-K   J/MOL-K   J/MOL-K
 ELEC.      0.000     0.000     0.000     0.000     0.000     0.000
 TRANS.     3.718     6.197   -44.439    12.472    20.786   169.836
 ROT.       3.718     3.718   -32.308    12.472    12.472   120.833
 VIB.     517.343   517.343   500.632    90.876    90.876    56.049
 TOTAL    524.780   527.259   423.885   115.819   124.134   346.717
 VIB. THERMAL CORRECTION E(T)-E(0) = H(T)-H(0) =     10600.797 J/MOL

              E         H         G         CV        CP        S
         KCAL/MOL  KCAL/MOL  KCAL/MOL CAL/MOL-K CAL/MOL-K CAL/MOL-K
 ELEC.      0.000     0.000     0.000     0.000     0.000     0.000
 TRANS.     0.889     1.481   -10.621     2.981     4.968    40.592
 ROT.       0.889     0.889    -7.722     2.981     2.981    28.880
 VIB.     123.648   123.648   119.654    21.720    21.720    13.396
 TOTAL    125.425   126.018   101.311    27.681    29.669    82.867
 VIB. THERMAL CORRECTION E(T)-E(0) = H(T)-H(0) =      2533.651 CAL/MOL
 ......END OF NORMAL COORDINATE ANALYSIS......
 STEP CPU TIME =     0.01 TOTAL CPU TIME =         72.7 (      1.2 MIN)
 TOTAL WALL CLOCK TIME=         73.3 SECONDS, CPU UTILIZATION IS    99.10%
               580000  WORDS OF DYNAMIC MEMORY USED
 EXECUTION OF GAMESS TERMINATED NORMALLY Sat Nov 13 20:21:47 2021
 DDI: 263640 bytes (0.3 MB / 0 MWords) used by master data server.

 ----------------------------------------
 CPU timing information for all processes
 ========================================
 0: 71.666 + 1.16 = 72.682
 ----------------------------------------
 ddikick.x: exited gracefully.
----- accounting info -----
Files used on the master node chemcompute-node-0.novalocal were:
-rw-r--r--. 1 chemcomp chemcomp     1548 Nov 13 20:20 /scratch/306148/342050.F05
-rw-rw-r--. 1 chemcomp chemcomp 18181616 Nov 13 20:21 /scratch/306148/342050.F08
-rw-rw-r--. 1 chemcomp chemcomp 85196800 Nov 13 20:21 /scratch/306148/342050.F10
-rw-rw-r--. 1 chemcomp chemcomp   878880 Nov 13 20:21 /scratch/306148/342050.F18
Sat Nov 13 20:21:50 UTC 2021
0.123u 0.088s 1:16.86 0.2%	0+0k 8+216io 0pf+0w
Finishing Up...
Looking for IR data...
Looking for Raman data...
vibramans not found
Looking for thermodynamics data...
Looking for UV-Vis data...
306148
