----- GAMESS execution script 'rungms' -----
This job is running on host chemcompute-node-0.novalocal
under operating system Linux at Sat Nov 13 20:14:01 UTC 2021
SLURM has assigned the following compute nodes to this run:
chemcompute-node-0
Available scratch disk space (Kbyte units) at beginning of the job is
Filesystem     1K-blocks     Used Available Use% Mounted on
/dev/sda1       62903276 16827028  46076248  27% /
GAMESS temporary binary files will be written to /scratch/306145
GAMESS supplementary output files will be written to /data/slurm/342047
Copying input file 342047.inp to your run's scratch directory...
The generated host list is
chemcompute-node-0.novalocal

 Distributed Data Interface kickoff program.
 Initiating 1 compute processes on 1 nodes to run the following command:
 /data/gamess-2019R1-ddi/gamess.00.x 342047 

          ******************************************************
          *         GAMESS VERSION = 30 JUN 2019 (R1)          *
          *             FROM IOWA STATE UNIVERSITY             *
          * M.W.SCHMIDT, K.K.BALDRIDGE, J.A.BOATZ, S.T.ELBERT, *
          *   M.S.GORDON, J.H.JENSEN, S.KOSEKI, N.MATSUNAGA,   *
          *          K.A.NGUYEN, S.J.SU, T.L.WINDUS,           *
          *       TOGETHER WITH M.DUPUIS, J.A.MONTGOMERY       *
          *         J.COMPUT.CHEM.  14, 1347-1363(1993)        *
          **************** 64 BIT LINUX VERSION ****************

  SINCE 1993, STUDENTS AND POSTDOCS WORKING AT IOWA STATE UNIVERSITY
  AND ALSO IN THEIR VARIOUS JOBS AFTER LEAVING ISU HAVE MADE IMPORTANT
  CONTRIBUTIONS TO THE CODE:
     IVANA ADAMOVIC, CHRISTINE AIKENS, YURI ALEXEEV, POOJA ARORA,
     ANDREY ASADCHEV, ROB BELL, PRADIPTA BANDYOPADHYAY, JONATHAN BENTZ,
     COLLEEN BERTONI, BRETT BODE, KURT BRORSEN, CALEB CARLIN, GALINA CHABAN,
     WEI CHEN, CHEOL HO CHOI, PAUL DAY, ALBERT DEFUSCO, NUWAN DESILVA,
     TIM DUDLEY, DMITRI FEDOROV, ALEX FINDLATER, GRAHAM FLETCHER, 
     MARK FREITAG, KURT GLAESEMANN, ANASTASIA GUNINA,
     DAN KEMP, GRANT MERRILL, NORIYUKI MINEZAWA, JONATHAN MULLIN,
     TAKESHI NAGATA, SEAN NEDD, HEATHER NETZLOFF, BOSILJKA NJEGIC, RYAN OLSON,
     MIKE PAK, BUU PHAM,
     SPENCER PRUITT, LUKE ROSKOP, JIM SHOEMAKER, LYUDMILA SLIPCHENKO,
     TONY SMITH, SAROM SOK LEANG, JIE SONG, TETSUYA TAKETSUGU, SIMON WEBB,
     PENG XU, SOOHAENG YOO, FEDERICO ZAHARIEV

  ADDITIONAL CODE HAS BEEN PROVIDED BY COLLABORATORS IN OTHER GROUPS:
     IOWA STATE UNIVERSITY:
          JOE IVANIC, AARON WEST, LAIMUTIS BYTAUTAS, KLAUS RUEDENBERG
     UNIVERSITY OF TOKYO: KIMIHIKO HIRAO, TAKAHITO NAKAJIMA,
          TAKAO TSUNEDA, MUNEAKI KAMIYA, SUSUMU YANAGISAWA,
          KIYOSHI YAGI, MAHITO CHIBA, SEIKEN TOKURA, NAOAKI KAWAKAMI
     UNIVERSITY OF AARHUS: FRANK JENSEN
     UNIVERSITY OF IOWA: VISVALDAS KAIRYS, HUI LI
     NATIONAL INST. OF STANDARDS AND TECHNOLOGY: WALT STEVENS, DAVID GARMER
     UNIVERSITY OF PISA: BENEDETTA MENNUCCI, JACOPO TOMASI
     UNIVERSITY OF MEMPHIS: HENRY KURTZ, PRAKASHAN KORAMBATH
     UNIVERSITY OF ALBERTA: TOBY ZENG, MARIUSZ KLOBUKOWSKI
     UNIVERSITY OF NEW ENGLAND: MARK SPACKMAN
     MIE UNIVERSITY: HIROAKI UMEDA
     NAT. INST. OF ADVANCED INDUSTRIAL SCIENCE AND TECHNOLOGY: KAZUO KITAURA
     MICHIGAN STATE UNIVERSITY:
          KAROL KOWALSKI, MARTA WLOCH, JEFFREY GOUR, JESSE LUTZ,
          WEI LI, JUN SHEN, J. EMILIANO DEUSTUA, PIOTR PIECUCH
     UNIVERSITY OF MINNESOTA:
          YINAN SHU
     UNIVERSITY OF SILESIA: MONIKA MUSIAL, STANISLAW KUCHARSKI
     FACULTES UNIVERSITAIRES NOTRE-DAME DE LA PAIX:
          OLIVIER QUINET, BENOIT CHAMPAGNE
     UNIVERSITY OF CALIFORNIA - SANTA BARBARA: BERNARD KIRTMAN
     INSTITUTE FOR MOLECULAR SCIENCE:
          KAZUYA ISHIMURA, MICHIO KATOUDA, AND SHIGERU NAGASE
     UNIVERSITY OF NOTRE DAME: ANNA POMOGAEVA, DAN CHIPMAN
     KYUSHU UNIVERSITY:
          HARUYUKI NAKANO,
          FENG LONG GU, JACEK KORCHOWIEC, MARCIN MAKOWSKI, AND YURIKO AOKI,
          HIROTOSHI MORI AND EISAKU MIYOSHI
     PENNSYLVANIA STATE UNIVERSITY:
          TZVETELIN IORDANOV, CHET SWALINA, JONATHAN SKONE,
          SHARON HAMMES-SCHIFFER
     WASEDA UNIVERSITY:
          MASATO KOBAYASHI, TOMOKO AKAMA, TSUGUKI TOUMA,
          TAKESHI YOSHIKAWA, YASUHIRO IKABATA, JUNJI SEINO,
          YUYA NAKAJIMA, HIROMI NAKAI
     NANJING UNIVERSITY: SHUHUA LI
     UNIVERSITY OF NEBRASKA:
          PEIFENG SU, DEJUN SI, NANDUN THELLAMUREGE, YALI WANG, HUI LI
     UNIVERSITY OF ZURICH: ROBERTO PEVERATI, KIM BALDRIDGE
     N. COPERNICUS UNIVERSITY AND JACKSON STATE UNIVERSITY:
          MARIA BARYSZ
     UNIVERSITY OF COPENHAGEN: Jimmy Kromann, CASPER STEINMANN
     TOKYO INSTITUTE OF TECHNOLOGY: HIROYA NAKATA
     NAGOYA UNIVERSITY: YOSHIO NISHIMOTO, STEPHAN IRLE
     MOSCOW STATE UNIVERSITY: VLADIMIR MIRONOV
     A.N.NESMEYANOV INSTITUTE OF ORGANOELEMENT COMPOUNDS OF RUSSIAN ACADEMY OF SCIENCES:
          IGOR S. GERASIMOV

 EXECUTION OF GAMESS BEGUN Sat Nov 13 20:14:02 2021

            ECHO OF THE FIRST FEW INPUT CARDS -
 INPUT CARD>!File created by the GAMESS Input Deck Generator Plugin for Avogadro            
 INPUT CARD> $BASIS GBASIS=STO NGAUSS=3 $END                                                
 INPUT CARD> $CONTRL SCFTYP=RHF RUNTYP=OPTIMIZE NZVAR=1 mult=1  ICHARG=0 $END               
 INPUT CARD> $STATPT hssend=.t. OPTTOL=0.0005 NSTEP=50 $END                                 
 INPUT CARD> $STATPT HESS=calc ihrep=5 $END                                                 
 INPUT CARD> $FORCE nvib=2 $END                                                             
 INPUT CARD> $ZMAT DLC=.t. auto=.t. nonvdw(1)=3,10,8,11 $END                                
 INPUT CARD> $ZMAT IFZMAT(1)=1,3,10,1,8,11 fvalue(1)=2.00,2.00 $END                         
 INPUT CARD>                                                                                
 INPUT CARD> $DATA                                                                          
 INPUT CARD>Title                                                                           
 INPUT CARD>C1                                                                              
 INPUT CARD>C     6.0     0.92906     0.73910    -0.61682                                   
 INPUT CARD>C     6.0    -1.41044     0.41498    -0.12029                                   
 INPUT CARD>C     6.0    -0.48880     1.04741    -0.89749                                   
 INPUT CARD>C     6.0     0.29571    -1.33360     0.50105                                   
 INPUT CARD>O     8.0     0.64946    -2.36934     1.06131                                   
 INPUT CARD>C     6.0     1.32207    -0.35554     0.05106                                   
 INPUT CARD>H     1.0     2.35662    -0.57805     0.27334                                   
 INPUT CARD>C     6.0    -1.43518    -1.92371    -1.59231                                   
 INPUT CARD>C     6.0    -0.65995    -1.10135    -2.58324                                   
 INPUT CARD>C     6.0    -0.87406     0.23601    -2.68735                                   
 INPUT CARD>C     6.0    -1.15868    -1.03370     0.17539                                   
 INPUT CARD>H     1.0    -1.86294    -1.50148     0.86598                                   
 INPUT CARD>H     1.0     1.66043     1.47100    -0.94875                                   
 INPUT CARD>H     1.0    -2.42205     0.79782    -0.03314                                   
 INPUT CARD>H     1.0    -0.68695     2.07914    -1.21144                                   
 INPUT CARD>H     1.0    -2.51718    -1.90506    -1.74777                                   
 INPUT CARD>H     1.0    -1.03587    -2.93085    -1.45086                                   
 INPUT CARD>H     1.0     0.25180    -1.53534    -2.98649                                   
 INPUT CARD>H     1.0    -1.90045     0.60155    -2.55166                                   
 INPUT CARD>H     1.0    -0.23358     0.80781    -3.36380                                   
 INPUT CARD> $END                                                                           
    1000000 WORDS OF MEMORY AVAILABLE

     BASIS OPTIONS
     -------------
     GBASIS=STO          IGAUSS=       3      POLAR=NONE    
     NDFUNC=       0     NFFUNC=       0     DIFFSP=       F
     NPFUNC=       0      DIFFS=       F     BASNAM=        


     RUN TITLE
     ---------
 Title                                                                           

 THE POINT GROUP OF THE MOLECULE IS C1      
 THE ORDER OF THE PRINCIPAL AXIS IS     0

 ATOM      ATOMIC                      COORDINATES (BOHR)
           CHARGE         X                   Y                   Z
 C           6.0     1.7556688262        1.3966964775       -1.1656207837
 C           6.0    -2.6653451221        0.7841984904       -0.2273151391
 C           6.0    -0.9236980628        1.9793178968       -1.6960101767
 C           6.0     0.5588108718       -2.5201385772        0.9468472061
 O           8.0     1.2273014400       -4.4774033717        2.0055850880
 C           6.0     2.4983500366       -0.6718731777        0.0964894089
 H           1.0     4.4533660572       -1.0923561072        0.5165377015
 C           6.0    -2.7120969431       -3.6352847798       -3.0090295875
 C           6.0    -1.2471246656       -2.0812497166       -4.8816157605
 C           6.0    -1.6517338968        0.4459942304       -5.0783551331
 C           6.0    -2.1895877075       -1.9534097535        0.3314390410
 H           1.0    -3.5204461316       -2.8373857760        1.6364649108
 H           1.0     3.1377577218        2.7797869279       -1.7928775309
 H           1.0    -4.5770108286        1.5076611875       -0.0626255192
 H           1.0    -1.2981472673        3.9290048901       -2.2892896506
 H           1.0    -4.7567804618       -3.6000413902       -3.3028063896
 H           1.0    -1.9575104589       -5.5385034111       -2.7417278465
 H           1.0     0.4758330037       -2.9013718980       -5.6436477651
 H           1.0    -3.5913297534        1.1367646679       -4.8219382138
 H           1.0    -0.4414021962        1.5265395501       -6.3566602775

          INTERNUCLEAR DISTANCES (ANGS.)
          ------------------------------

                1 C          2 C          3 C          4 C          5 O     

   1 C       0.0000000    2.4134739 *  1.4778896 *  2.4386166 *  3.5435428  
   2 C       2.4134739 *  0.0000000    1.3614066 *  2.5208219 *  3.6594814  
   3 C       1.4778896 *  1.3614066 *  0.0000000    2.8706408 *  4.0995992  
   4 C       2.4386166 *  2.5208219 *  2.8706408 *  0.0000000    1.2295478 *
   5 O       3.5435428    3.6594814    4.0995992    1.2295478 *  0.0000000  
   6 C       1.3411776 *  2.8442350 *  2.4793681 *  1.4874499 *  2.3512549 *
   7 H       2.1366320 *  3.9155835    3.4798532    2.2068207 *  2.5969235 *
   8 C       3.6921225    2.7634988 *  3.1946774    2.7796342 *  3.4038227  
   9 C       3.1271419    2.9880787 *  2.7364603 *  3.2372938    4.0749353  
  10 C       2.7913143 *  2.6285986 *  2.0025968 *  3.7413810    4.8126306  
  11 C       2.8511532 *  1.4998278 *  2.4353295 *  1.5202778 *  2.4162282 *
  12 H       3.8748108    2.2023405 *  3.3904170    2.1957066 *  2.6652371 *
  13 H       1.0866265 *  3.3513828    2.1911745 *  3.4395002    4.4509115  
  14 H       3.4020683    1.0851343 *  2.1323348 *  3.4949291    4.5456459  
  15 H       2.1819185 *  2.1174217 *  1.0964921 *  3.9427195    5.1711081  
  16 H       4.4885633    3.0423922    3.6816274    3.6463829    4.2584146  
  17 H       4.2455984    3.6201240    4.0536473    2.8520634 *  3.0767887  
  18 H       3.3536688    3.8447227    3.4033817    3.4936460    4.1519121  
  19 H       3.4305470    2.4872632 *  2.2198705 *  4.2292981    5.3274554  
  20 H       2.9836809 *  3.4727038    2.4910300 *  4.4500393    5.5186629  

                6 C          7 H          8 C          9 C         10 C     

   1 C       1.3411776 *  2.1366320 *  3.6921225    3.1271419    2.7913143 *
   2 C       2.8442350 *  3.9155835    2.7634988 *  2.9880787 *  2.6285986 *
   3 C       2.4793681 *  3.4798532    3.1946774    2.7364603 *  2.0025968 *
   4 C       1.4874499 *  2.2068207 *  2.7796342 *  3.2372938    3.7413810  
   5 O       2.3512549 *  2.5969235 *  3.4038227    4.0749353    4.8126306  
   6 C       0.0000000    1.0813014 *  3.5724291    3.3799663    3.5597483  
   7 H       1.0813014 *  0.0000000    4.4349970    4.1873126    4.4570924  
   8 C       3.5724291    4.4349970    0.0000000    1.5030635 *  2.4856305 *
   9 C       3.3799663    4.1873126    1.5030635 *  0.0000000    1.3583865 *
  10 C       3.5597483    4.4570924    2.4856305 *  1.3583865 *  0.0000000  
  11 C       2.5747776 *  3.5460605    1.9983326 *  2.8041661 *  3.1445910  
  12 H       3.4816033    4.3598890    2.5307008 *  3.6748344    4.0771202  
  13 H       2.1095867 *  2.4853149 *  4.6390761    3.8304968    3.3123360  
  14 H       3.9186431    4.9822320    3.2881072    3.6352239    3.1235772  
  15 H       3.3996668    4.3044801    4.0899533    3.4638246    2.3686386 *
  16 H       4.5140494    5.4405668    1.0932702 *  2.1893522 *  2.8577674 *
  17 H       3.8010349    4.4740945    1.0926059 *  2.1841865 *  3.4035411  
  18 H       3.4298857    3.9966440    2.2227170 *  1.0873113 *  2.1200770 *
  19 H       4.2514477    5.2435414    2.7411251 *  2.1070610 *  1.0979561 *
  20 H       3.9287019    4.6753108    3.4703344    2.1061712 *  1.0930482 *

               11 C         12 H         13 H         14 H         15 H     

   1 C       2.8511532 *  3.8748108    1.0866265 *  3.4020683    2.1819185 *
   2 C       1.4998278 *  2.2023405 *  3.3513828    1.0851343 *  2.1174217 *
   3 C       2.4353295 *  3.3904170    2.1911745 *  2.1323348 *  1.0964921 *
   4 C       1.5202778 *  2.1957066 *  3.4395002    3.4949291    3.9427195  
   5 O       2.4162282 *  2.6652371 *  4.4509115    4.5456459    5.1711081  
   6 C       2.5747776 *  3.4816033    2.1095867 *  3.9186431    3.3996668  
   7 H       3.5460605    4.3598890    2.4853149 *  4.9822320    4.3044801  
   8 C       1.9983326 *  2.5307008 *  4.6390761    3.2881072    4.0899533  
   9 C       2.8041661 *  3.6748344    3.8304968    3.6352239    3.4638246  
  10 C       3.1445910    4.0771202    3.3123360    3.1235772    2.3686386 *
  11 C       0.0000000    1.0916569 *  3.9350469    2.2347380 *  3.4402906  
  12 H       1.0916569 *  0.0000000    4.9540911    2.5313635 *  4.3034249  
  13 H       3.9350469    4.9540911    0.0000000    4.2377064    2.4390640 *
  14 H       2.2347380 *  2.5313635 *  4.2377064    0.0000000    2.4577925 *
  15 H       3.4402906    4.3034249    2.4390640 *  2.4577925 *  0.0000000  
  16 H       2.5106443 *  2.7244441 *  5.4303443    3.2022751    4.4171531  
  17 H       2.5017893 *  2.8451522 *  5.1863698    4.2230800    5.0278292  
  18 H       3.4983684    4.3948603    3.8954721    4.6168588    4.1347938  
  19 H       3.2651289    4.0130294    4.0006412    2.5794440 *  2.3349613 *
  20 H       4.0954652    5.0871085    3.1399938    3.9853227    2.5405665 *

               16 H         17 H         18 H         19 H         20 H     

   1 C       4.4885633    4.2455984    3.3536688    3.4305470    2.9836809 *
   2 C       3.0423922    3.6201240    3.8447227    2.4872632 *  3.4727038  
   3 C       3.6816274    4.0536473    3.4033817    2.2198705 *  2.4910300 *
   4 C       3.6463829    2.8520634 *  3.4936460    4.2292981    4.4500393  
   5 O       4.2584146    3.0767887    4.1519121    5.3274554    5.5186629  
   6 C       4.5140494    3.8010349    3.4298857    4.2514477    3.9287019  
   7 H       5.4405668    4.4740945    3.9966440    5.2435414    4.6753108  
   8 C       1.0932702 *  1.0926059 *  2.2227170 *  2.7411251 *  3.4703344  
   9 C       2.1893522 *  2.1841865 *  1.0873113 *  2.1070610 *  2.1061712 *
  10 C       2.8577674 *  3.4035411    2.1200770 *  1.0979561 *  1.0930482 *
  11 C       2.5106443 *  2.5017893 *  3.4983684    3.2651289    4.0954652  
  12 H       2.7244441 *  2.8451522 *  4.3948603    4.0130294    5.0871085  
  13 H       5.4303443    5.1863698    3.8954721    4.0006412    3.1399938  
  14 H       3.2022751    4.2230800    4.6168588    2.5794440 *  3.9853227  
  15 H       4.4171531    5.0278292    4.1347938    2.3349613 *  2.5405665 *
  16 H       0.0000000    1.8261106 *  3.0558747    2.7036436 *  3.8969277  
  17 H       1.8261106 *  0.0000000    2.4420691 *  3.7996196    4.2755803  
  18 H       3.0558747    2.4420691 *  0.0000000    3.0639119    2.4224592 *
  19 H       2.7036436 *  3.7996196    3.0639119    0.0000000    1.8656286 *
  20 H       3.8969277    4.2755803    2.4224592 *  1.8656286 *  0.0000000  

  * ... LESS THAN  3.000


     ATOMIC BASIS SET
     ----------------
 THE CONTRACTED PRIMITIVE FUNCTIONS HAVE BEEN UNNORMALIZED
 THE CONTRACTED BASIS FUNCTIONS ARE NOW NORMALIZED TO UNITY

  SHELL TYPE  PRIMITIVE        EXPONENT          CONTRACTION COEFFICIENT(S)

 C         

      1   S       1            71.6168373    0.154328967295
      1   S       2            13.0450963    0.535328142282
      1   S       3             3.5305122    0.444634542185

      2   L       4             2.9412494   -0.099967229187    0.155916274999
      2   L       5             0.6834831    0.399512826089    0.607683718598
      2   L       6             0.2222899    0.700115468880    0.391957393099

 C         

      3   S       7            71.6168373    0.154328967295
      3   S       8            13.0450963    0.535328142282
      3   S       9             3.5305122    0.444634542185

      4   L      10             2.9412494   -0.099967229187    0.155916274999
      4   L      11             0.6834831    0.399512826089    0.607683718598
      4   L      12             0.2222899    0.700115468880    0.391957393099

 C         

      5   S      13            71.6168373    0.154328967295
      5   S      14            13.0450963    0.535328142282
      5   S      15             3.5305122    0.444634542185

      6   L      16             2.9412494   -0.099967229187    0.155916274999
      6   L      17             0.6834831    0.399512826089    0.607683718598
      6   L      18             0.2222899    0.700115468880    0.391957393099

 C         

      7   S      19            71.6168373    0.154328967295
      7   S      20            13.0450963    0.535328142282
      7   S      21             3.5305122    0.444634542185

      8   L      22             2.9412494   -0.099967229187    0.155916274999
      8   L      23             0.6834831    0.399512826089    0.607683718598
      8   L      24             0.2222899    0.700115468880    0.391957393099

 O         

      9   S      25           130.7093214    0.154328967295
      9   S      26            23.8088661    0.535328142282
      9   S      27             6.4436083    0.444634542185

     10   L      28             5.0331513   -0.099967229187    0.155916274999
     10   L      29             1.1695961    0.399512826089    0.607683718598
     10   L      30             0.3803890    0.700115468880    0.391957393099

 C         

     11   S      31            71.6168373    0.154328967295
     11   S      32            13.0450963    0.535328142282
     11   S      33             3.5305122    0.444634542185

     12   L      34             2.9412494   -0.099967229187    0.155916274999
     12   L      35             0.6834831    0.399512826089    0.607683718598
     12   L      36             0.2222899    0.700115468880    0.391957393099

 H         

     13   S      37             3.4252509    0.154328967295
     13   S      38             0.6239137    0.535328142282
     13   S      39             0.1688554    0.444634542185

 C         

     14   S      40            71.6168373    0.154328967295
     14   S      41            13.0450963    0.535328142282
     14   S      42             3.5305122    0.444634542185

     15   L      43             2.9412494   -0.099967229187    0.155916274999
     15   L      44             0.6834831    0.399512826089    0.607683718598
     15   L      45             0.2222899    0.700115468880    0.391957393099

 C         

     16   S      46            71.6168373    0.154328967295
     16   S      47            13.0450963    0.535328142282
     16   S      48             3.5305122    0.444634542185

     17   L      49             2.9412494   -0.099967229187    0.155916274999
     17   L      50             0.6834831    0.399512826089    0.607683718598
     17   L      51             0.2222899    0.700115468880    0.391957393099

 C         

     18   S      52            71.6168373    0.154328967295
     18   S      53            13.0450963    0.535328142282
     18   S      54             3.5305122    0.444634542185

     19   L      55             2.9412494   -0.099967229187    0.155916274999
     19   L      56             0.6834831    0.399512826089    0.607683718598
     19   L      57             0.2222899    0.700115468880    0.391957393099

 C         

     20   S      58            71.6168373    0.154328967295
     20   S      59            13.0450963    0.535328142282
     20   S      60             3.5305122    0.444634542185

     21   L      61             2.9412494   -0.099967229187    0.155916274999
     21   L      62             0.6834831    0.399512826089    0.607683718598
     21   L      63             0.2222899    0.700115468880    0.391957393099

 H         

     22   S      64             3.4252509    0.154328967295
     22   S      65             0.6239137    0.535328142282
     22   S      66             0.1688554    0.444634542185

 H         

     23   S      67             3.4252509    0.154328967295
     23   S      68             0.6239137    0.535328142282
     23   S      69             0.1688554    0.444634542185

 H         

     24   S      70             3.4252509    0.154328967295
     24   S      71             0.6239137    0.535328142282
     24   S      72             0.1688554    0.444634542185

 H         

     25   S      73             3.4252509    0.154328967295
     25   S      74             0.6239137    0.535328142282
     25   S      75             0.1688554    0.444634542185

 H         

     26   S      76             3.4252509    0.154328967295
     26   S      77             0.6239137    0.535328142282
     26   S      78             0.1688554    0.444634542185

 H         

     27   S      79             3.4252509    0.154328967295
     27   S      80             0.6239137    0.535328142282
     27   S      81             0.1688554    0.444634542185

 H         

     28   S      82             3.4252509    0.154328967295
     28   S      83             0.6239137    0.535328142282
     28   S      84             0.1688554    0.444634542185

 H         

     29   S      85             3.4252509    0.154328967295
     29   S      86             0.6239137    0.535328142282
     29   S      87             0.1688554    0.444634542185

 H         

     30   S      88             3.4252509    0.154328967295
     30   S      89             0.6239137    0.535328142282
     30   S      90             0.1688554    0.444634542185

 TOTAL NUMBER OF BASIS SET SHELLS             =   30
 NUMBER OF CARTESIAN GAUSSIAN BASIS FUNCTIONS =   60
 NUMBER OF ELECTRONS                          =   72
 CHARGE OF MOLECULE                           =    0
 SPIN MULTIPLICITY                            =    1
 NUMBER OF OCCUPIED ORBITALS (ALPHA)          =   36
 NUMBER OF OCCUPIED ORBITALS (BETA )          =   36
 TOTAL NUMBER OF ATOMS                        =   20
 THE NUCLEAR REPULSION ENERGY IS      507.9456557643

     $CONTRL OPTIONS
     ---------------
 SCFTYP=RHF          RUNTYP=OPTIMIZE     EXETYP=RUN     
 MPLEVL=       0     CITYP =NONE         CCTYP =NONE         VBTYP =NONE    
 DFTTYP=NONE         TDDFT =NONE    
 MULT  =       1     ICHARG=       0     NZVAR =       1     COORD =UNIQUE  
 PP    =NONE         RELWFN=NONE         LOCAL =NONE         NUMGRD=       F
 ISPHER=      -1     NOSYM =       0     MAXIT =      30     UNITS =ANGS    
 PLTORB=       F     MOLPLT=       F     AIMPAC=       F     FRIEND=        
 NPRINT=       7     IREST =       0     GEOM  =INPUT   
 NORMF =       0     NORMP =       0     ITOL  =      20     ICUT  =       9
 INTTYP=BEST         GRDTYP=BEST         QMTTOL= 1.0E-06

     $SYSTEM OPTIONS
     ---------------
  REPLICATED MEMORY=     1000000 WORDS (ON EVERY NODE).
 DISTRIBUTED MEMDDI=           0 MILLION WORDS IN AGGREGATE,
 MEMDDI DISTRIBUTED OVER   1 PROCESSORS IS           0 WORDS/PROCESSOR.
 TOTAL MEMORY REQUESTED ON EACH PROCESSOR=     1000000 WORDS.
 TIMLIM=      525600.00 MINUTES, OR     365.0 DAYS.
 PARALL= F  BALTYP=  DLB     KDIAG=    0  COREFL= F
 MXSEQ2=     300 MXSEQ3=     150  mem10=         0

          ----------------
          PROPERTIES INPUT
          ----------------

     MOMENTS            FIELD           POTENTIAL          DENSITY
 IEMOM =       1   IEFLD =       0   IEPOT =       0   IEDEN =       0
 WHERE =COMASS     WHERE =NUCLEI     WHERE =NUCLEI     WHERE =NUCLEI  
 OUTPUT=BOTH       OUTPUT=BOTH       OUTPUT=BOTH       OUTPUT=BOTH    
 IEMINT=       0   IEFINT=       0                     IEDINT=       0
                                                       MORB  =       0
          EXTRAPOLATION IN EFFECT
          SOSCF IN EFFECT
 ORBITAL PRINTING OPTION: NPREO=     1    60     2     1

     -------------------------------
     INTEGRAL TRANSFORMATION OPTIONS
     -------------------------------
     NWORD  =            0
     CUTOFF = 1.0E-09     MPTRAN =       0
     DIRTRF =       F     AOINTS =DUP     

          ----------------------
          INTEGRAL INPUT OPTIONS
          ----------------------
 NOPK  =       1 NORDER=       0 SCHWRZ=       T


 -----------------------------------------------
  STATISTICS ON AUTOMATIC COORDINATE GENERATION 
 -----------------------------------------------
  NUMBER OF USER SPECIFIED BONDS                             2
  NUMBER OF BONDS                                           21
  NUMBER OF ANGLES                                          39
  NUMBER OF TORSIONS                                        62
  NUMBER OF EXTRA COORD.                                     0
  NUMBER OF EXTRA COORD. FOR CONSTRAINTS                     0
  NUMBER OF CONSTRAINED COORD.                               2

  TOTAL NUMBER OF PRIMITIVES                               122
 -----------------------------------------------

   --- ENCODED Z MATRIX ---
 COORD  TYPE   I   J   K   L   M   N
    1      1    3  10
    2      1    8  11
    3      1    1   3
    4      1    1  13
    5      1    1   6
    6      1    2  14
    7      1    2   3
    8      1    2  11
    9      1    3  15
   10      1    4   5
   11      1    4   6
   12      1    4  11
   13      1    6   7
   14      1    8  16
   15      1    8   9
   16      1    8  17
   17      1    9  18
   18      1    9  10
   19      1   10  20
   20      1   10  19
   21      1   11  12
   22      2    1   6   7
   23      2    1   3  10
   24      2    1   3   2
   25      2    1   6   4
   26      2    1   3  15
   27      2    2  11   4
   28      2    2   3  15
   29      2    2  11   8
   30      2    2   3  10
   31      2    2  11  12
   32      2    3  10  20
   33      2    3   2  14
   34      2    3  10  19
   35      2    3   2  11
   36      2    3   1   6
   37      2    3  10   9
   38      2    3   1  13
   39      2    4  11  12
   40      2    4  11   8
   41      2    4   6   7
   42      2    5   4  11
   43      2    5   4   6
   44      2    6   1  13
   45      2    6   4  11
   46      2    8  11  12
   47      2    8   9  10
   48      2    8   9  18
   49      2    9   8  17
   50      2    9   8  11
   51      2    9   8  16
   52      2    9  10  19
   53      2    9  10  20
   54      2   10   9  18
   55      2   10   3  15
   56      2   11   8  16
   57      2   11   2  14
   58      2   11   8  17
   59      2   16   8  17
   60      2   19  10  20
   61      3    1   6   4  11
   62      3    1   3  10  19
   63      3    1   6   4   5
   64      3    1   3  10  20
   65      3    1   3   2  11
   66      3    1   3  10   9
   67      3    1   3   2  14
   68      3    2   3  10   9
   69      3    2  11   8  17
   70      3    2  11   8   9
   71      3    2  11   8  16
   72      3    2  11   4   6
   73      3    2  11   4   5
   74      3    2   3   1   6
   75      3    2   3  10  19
   76      3    2   3  10  20
   77      3    2   3   1  13
   78      3    3  10   9  18
   79      3    3  10   9   8
   80      3    3   2  11   8
   81      3    3   1   6   4
   82      3    3   1   6   7
   83      3    3   2  11   4
   84      3    3   2  11  12
   85      3    4   6   1  13
   86      3    4  11   2  14
   87      3    4  11   8  17
   88      3    4  11   8   9
   89      3    4  11   8  16
   90      3    5   4   6   7
   91      3    5   4  11   8
   92      3    5   4  11  12
   93      3    6   1   3  10
   94      3    6   1   3  15
   95      3    6   4  11   8
   96      3    6   4  11  12
   97      3    7   6   1  13
   98      3    7   6   4  11
   99      3    8  11   2  14
  100      3    8   9  10  19
  101      3    8   9  10  20
  102      3    9  10   3  15
  103      3    9   8  11  12
  104      3   10   3   2  11
  105      3   10   3   2  14
  106      3   10   3   1  13
  107      3   10   9   8  17
  108      3   10   9   8  11
  109      3   10   9   8  16
  110      3   11   8   9  18
  111      3   11   2   3  15
  112      3   12  11   8  17
  113      3   12  11   8  16
  114      3   12  11   2  14
  115      3   13   1   3  15
  116      3   14   2   3  15
  117      3   15   3  10  19
  118      3   15   3  10  20
  119      3   16   8   9  18
  120      3   17   8   9  18
  121      3   18   9  10  20
  122      3   18   9  10  19

          INDEP./SYM. INTERNAL COORDINATES
          --------------------------------
 CRD  1=   1.0000 (  1)
 CRD  2=   1.0000 (  2)
 CRD  3=   0.2304 (  3)  0.1450 (  4) -0.1309 ( 10) -0.2323 ( 12)  0.1270 ( 16)
           0.1476 ( 18) -0.1053 ( 19)  0.1029 ( 24) -0.1017 ( 27)  0.2078 ( 29)
          -0.2071 ( 30) -0.1202 ( 32) -0.1954 ( 36)  0.1947 ( 38) -0.2807 ( 42)
           0.2021 ( 45) -0.1344 ( 46) -0.1654 ( 50)  0.1210 ( 55)  0.1147 ( 58)
          -0.1253 ( 68) -0.1620 ( 70)  0.1402 ( 78)  0.1541 ( 79) -0.1145 ( 88)
           0.1469 ( 91)  0.1317 ( 93)  0.1524 ( 95)  0.1416 (106)  0.1403 (108)
           0.1342 (110)
 CRD  4=   0.1018 (  3) -0.1688 (  5)  0.2656 (  7)  0.3236 (  8) -0.2129 ( 11)
           0.1458 ( 12)  0.1759 ( 15)  0.1995 ( 18)  0.1134 ( 34) -0.1734 ( 37)
           0.1020 ( 38)  0.1978 ( 42) -0.2662 ( 43) -0.1874 ( 44)  0.3206 ( 47)
          -0.1667 ( 48) -0.1741 ( 50) -0.1515 ( 54) -0.1154 ( 71)  0.1351 ( 75)
 CRD  5=   0.1007 (  3)  0.1399 (  7) -0.1412 ( 15)  0.1906 ( 18)  0.1554 ( 32)
           0.1209 ( 33) -0.2375 ( 48)  0.1332 ( 51)  0.2485 ( 54) -0.1319 ( 56)
          -0.1080 ( 57) -0.1159 ( 58) -0.1335 ( 61) -0.1006 ( 63)  0.1254 ( 68)
           0.1303 ( 70)  0.1941 ( 72)  0.1543 ( 73)  0.1953 ( 74)  0.1625 ( 77)
          -0.1011 ( 82)  0.1399 ( 91)  0.1669 ( 93)  0.1797 ( 95) -0.1231 ( 98)
          -0.1371 (100)  0.1240 (101)  0.1073 (103)  0.1341 (106) -0.1072 (109)
           0.1050 (114)  0.1091 (116)  0.1439 (120)  0.1630 (121)
 CRD  6=  -0.3053 (  3)  0.1636 (  7)  0.1290 (  8)  0.1683 ( 11) -0.2865 ( 12)
           0.3434 ( 15)  0.1236 ( 16)  0.2342 ( 18)  0.1348 ( 19) -0.1271 ( 22)
           0.1018 ( 28) -0.1468 ( 34) -0.1721 ( 38) -0.2788 ( 42)  0.3321 ( 43)
           0.1688 ( 44) -0.1230 ( 56)  0.1228 ( 75) -0.1169 ( 78) -0.1166 ( 79)
 CRD  7=   0.2295 (  3)  0.2003 (  5)  0.1328 ( 10)  0.4118 ( 11)  0.2781 ( 12)
           0.2588 ( 13)  0.1178 ( 15) -0.1668 ( 25)  0.2154 ( 34) -0.1424 ( 37)
           0.2463 ( 41) -0.1862 ( 42)  0.1751 ( 43)  0.1350 ( 49) -0.1050 ( 50)
           0.1399 ( 53)  0.2031 ( 56) -0.1285 ( 58)  0.1280 ( 78)  0.1392 ( 79)
          -0.1638 (108) -0.1584 (110)
 CRD  8=   0.1068 (  6)  0.1297 (  7)  0.1298 ( 17) -0.1307 ( 23)  0.1313 ( 29)
           0.1359 ( 30) -0.1191 ( 31)  0.1279 ( 32)  0.1025 ( 33)  0.1446 ( 34)
          -0.1144 ( 35) -0.1020 ( 42)  0.1790 ( 46) -0.1606 ( 49) -0.1105 ( 53)
           0.1338 ( 55)  0.1908 ( 56)  0.1894 ( 58) -0.1222 ( 65) -0.1278 ( 67)
          -0.1333 ( 72) -0.1522 ( 73)  0.1902 ( 80)  0.1541 ( 83)  0.1810 ( 86)
          -0.1044 ( 94)  0.1044 ( 96)  0.2170 ( 99) -0.1547 (100)  0.1125 (101)
          -0.1940 (104) -0.1996 (105) -0.1589 (107)  0.1782 (109)  0.2038 (119)
          -0.1333 (120) -0.1749 (122)
 CRD  9=   0.1838 (  3)  0.1122 (  4) -0.1516 (  5)  0.3314 (  7) -0.2954 (  8)
          -0.1665 ( 10) -0.1281 ( 12) -0.1548 ( 18)  0.3822 ( 33) -0.1307 ( 36)
           0.2583 ( 38) -0.1271 ( 44)  0.1391 ( 45) -0.3699 ( 57)  0.1385 ( 67)
          -0.1103 ( 77)  0.1045 ( 88)
 CRD 10=   0.1451 (  4)  0.4115 (  5) -0.1379 ( 11)  0.1749 ( 15)  0.2214 ( 18)
           0.3791 ( 22) -0.1126 ( 32) -0.1281 ( 36) -0.1661 ( 38) -0.4144 ( 41)
           0.1494 ( 42) -0.1764 ( 43)  0.2938 ( 44)  0.1375 ( 53)  0.1283 ( 54)
          -0.1279 ( 57)
 CRD 11=  -0.2333 (  5) -0.1801 (  6) -0.1904 (  7) -0.2367 (  8) -0.1589 ( 13)
           0.3777 ( 15)  0.1985 ( 17)  0.2123 ( 18) -0.1778 ( 22)  0.1327 ( 25)
           0.1019 ( 34)  0.1497 ( 35)  0.2324 ( 38)  0.1515 ( 42) -0.1503 ( 44)
          -0.1554 ( 47)  0.2002 ( 48)  0.1719 ( 49) -0.1342 ( 58) -0.1058 ( 85)
           0.1522 ( 87)
 CRD 12=  -0.1801 (  3) -0.1125 (  4) -0.1500 (  5) -0.2431 (  6) -0.1872 (  7)
          -0.1593 (  8) -0.1613 ( 11) -0.2640 ( 12) -0.1365 ( 13) -0.2837 ( 15)
          -0.1323 ( 17)  0.1076 ( 20) -0.1401 ( 21)  0.1873 ( 34) -0.1661 ( 37)
           0.1039 ( 43)  0.1134 ( 47) -0.3201 ( 48)  0.1499 ( 53)  0.2094 ( 54)
           0.1977 ( 56)  0.1476 ( 78)  0.1004 ( 79) -0.1320 (108)
 CRD 13=   0.2088 (  3)  0.1025 (  6)  0.1845 (  8)  0.1394 (  9)  0.1864 ( 10)
           0.1250 ( 11) -0.1078 ( 14)  0.1260 ( 17)  0.3370 ( 18) -0.1783 ( 22)
           0.1479 ( 25)  0.1238 ( 26) -0.1019 ( 32) -0.1194 ( 34)  0.2556 ( 38)
          -0.2041 ( 44) -0.1342 ( 45) -0.1071 ( 47) -0.2222 ( 48)  0.1431 ( 50)
           0.1104 ( 53)  0.3284 ( 54) -0.1399 ( 64) -0.1089 (101)  0.1019 (110)
 CRD 14=   0.2630 (  4) -0.1036 (  6)  0.1993 (  7)  0.1612 (  8)  0.1190 (  9)
           0.2043 ( 10)  0.1522 ( 11) -0.2532 ( 13) -0.1002 ( 15) -0.2103 ( 18)
           0.1535 ( 21) -0.1610 ( 22)  0.3346 ( 25)  0.1196 ( 34)  0.1184 ( 35)
          -0.2258 ( 36)  0.1174 ( 38) -0.1739 ( 41)  0.1118 ( 42)  0.1087 ( 44)
          -0.1740 ( 45) -0.1015 ( 54)  0.1187 ( 56)  0.1319 ( 79)  0.1327 (101)
          -0.1088 (108)
 CRD 15=  -0.1630 (  3)  0.1891 (  7) -0.1883 (  8) -0.1678 (  9)  0.1036 ( 11)
           0.1502 ( 12) -0.1719 ( 14) -0.1716 ( 15)  0.2282 ( 18)  0.1435 ( 20)
           0.1800 ( 21) -0.1534 ( 26)  0.1355 ( 32) -0.1423 ( 38)  0.1665 ( 39)
           0.1075 ( 42) -0.1583 ( 43)  0.1709 ( 44) -0.1671 ( 51)  0.1463 ( 52)
           0.1320 ( 62) -0.1239 ( 70)  0.1337 ( 89)  0.1068 ( 99)  0.1118 (101)
          -0.1388 (102) -0.1564 (103)  0.1010 (107)  0.1007 (108)  0.1228 (110)
           0.1060 (114)  0.1135 (119)  0.1231 (120)  0.1137 (121)
 CRD 16=   0.1620 (  4) -0.2789 (  9) -0.2085 ( 10) -0.1102 ( 16)  0.1146 ( 19)
           0.3206 ( 21)  0.1148 ( 24) -0.1432 ( 27) -0.1014 ( 28)  0.1575 ( 31)
          -0.2367 ( 33)  0.1471 ( 34) -0.1173 ( 36)  0.1583 ( 45) -0.1406 ( 49)
           0.1404 ( 51) -0.1252 ( 52)  0.1215 ( 53) -0.1546 ( 56)  0.2314 ( 57)
           0.1237 ( 66) -0.1442 ( 69) -0.1499 ( 71) -0.1219 ( 75) -0.1169 ( 76)
           0.1527 ( 88) -0.1246 ( 93) -0.1328 ( 95) -0.1180 ( 96) -0.1124 (100)
           0.1116 (103) -0.1003 (106)
 CRD 17=  -0.1549 (  6) -0.1316 (  7) -0.1207 (  8) -0.1277 ( 14)  0.1609 ( 16)
          -0.3325 ( 17)  0.1683 ( 19) -0.1721 ( 20)  0.1943 ( 32)  0.1330 ( 47)
           0.1119 ( 55)  0.2256 ( 58)  0.1751 ( 61)  0.1712 ( 63)  0.1306 ( 65)
           0.1015 ( 66)  0.1160 ( 68) -0.1102 ( 78) -0.1662 ( 81) -0.1101 ( 82)
          -0.1105 ( 83) -0.1635 ( 85)  0.1184 ( 90) -0.1074 ( 97)  0.1223 ( 98)
           0.1550 (101)  0.1679 (102) -0.1459 (103) -0.1650 (107)  0.1080 (110)
           0.1365 (111) -0.1083 (112)  0.1016 (116)  0.1020 (118) -0.1103 (120)
           0.1039 (121)
 CRD 18=   0.2030 (  4)  0.3151 (  6) -0.3362 (  9)  0.2640 ( 10) -0.1861 ( 13)
          -0.4422 ( 21)  0.1265 ( 24) -0.1078 ( 26)  0.1416 ( 34) -0.1324 ( 35)
          -0.1145 ( 45)  0.1034 ( 51) -0.1201 ( 56) -0.1203 ( 72) -0.1253 ( 73)
          -0.1149 ( 89) -0.1359 (100) -0.1023 (109) -0.1132 (119) -0.1195 (122)
 CRD 19=  -0.2237 (  4) -0.1490 (  6)  0.3813 (  9)  0.1342 ( 17) -0.1366 ( 19)
           0.1247 ( 20)  0.2131 ( 34) -0.1236 ( 46)  0.1481 ( 51)  0.1280 ( 55)
          -0.2226 ( 56) -0.1021 ( 62) -0.1032 ( 66) -0.1070 ( 72) -0.1346 ( 74)
          -0.1232 ( 77)  0.1247 ( 84) -0.1342 ( 92) -0.1132 ( 94) -0.1682 ( 96)
          -0.1981 (100) -0.1101 (102) -0.1999 (109)  0.1252 (114) -0.1018 (115)
           0.1104 (116) -0.1090 (117) -0.1955 (119) -0.2006 (122)
 CRD 20=  -0.1313 (  9) -0.1992 ( 14)  0.2281 ( 16) -0.1592 ( 19)  0.2066 ( 20)
           0.1855 ( 21) -0.1071 ( 31) -0.1449 ( 32)  0.1397 ( 34) -0.1106 ( 40)
           0.1312 ( 46) -0.1175 ( 55) -0.1280 ( 56)  0.2117 ( 58) -0.1071 ( 61)
           0.1466 ( 72)  0.1137 ( 73)  0.1156 ( 74)  0.1912 ( 92)  0.1794 ( 94)
           0.1146 ( 95)  0.2240 ( 96) -0.1030 ( 98) -0.1200 (100) -0.1576 (101)
          -0.1127 (102) -0.1169 (103) -0.2058 (107) -0.1178 (109)  0.1506 (115)
          -0.1218 (119) -0.2098 (120) -0.1654 (121) -0.1278 (122)
 CRD 21=  -0.2928 ( 14)  0.2320 ( 16) -0.3691 ( 17)  0.2073 ( 19) -0.3119 ( 20)
           0.1378 ( 49) -0.1421 ( 52)  0.1474 ( 53) -0.1231 ( 61) -0.1156 ( 62)
          -0.1202 ( 63) -0.1049 ( 64) -0.1212 ( 65) -0.1022 ( 75)  0.1219 ( 80)
           0.1469 ( 81)  0.1232 ( 82)  0.1328 ( 83)  0.1903 ( 84)  0.1335 ( 85)
           0.1099 ( 97) -0.1006 ( 98) -0.1158 (104) -0.1461 (111)  0.1383 (114)
 CRD 22=   0.2305 (  6) -0.1211 ( 14) -0.1670 ( 17) -0.1697 ( 19) -0.2458 ( 20)
          -0.1006 ( 26) -0.2053 ( 32)  0.1136 ( 34)  0.1018 ( 46)  0.1155 ( 53)
           0.1014 ( 55)  0.1009 ( 56) -0.1593 ( 58)  0.1079 ( 61)  0.1116 ( 63)
          -0.1379 ( 81) -0.1180 ( 82) -0.1732 ( 84) -0.1356 ( 85) -0.1157 ( 97)
          -0.2126 (100) -0.2287 (101)  0.2065 (107)  0.1963 (109)  0.1809 (111)
          -0.1125 (114)  0.1194 (116) -0.1154 (117) -0.1251 (118)  0.1273 (119)
           0.1375 (120) -0.1562 (121) -0.1400 (122)
 CRD 23=   0.1706 (  6)  0.1004 (  8) -0.1798 ( 10) -0.2543 ( 14)  0.4516 ( 19)
           0.5559 ( 20)  0.1135 ( 49)  0.1863 ( 60)  0.1083 ( 64)  0.1598 ( 69)
           0.1307 ( 71)  0.1172 ( 76)  0.1554 ( 87)  0.1263 ( 89)  0.1689 (112)
           0.1398 (113)  0.1071 (118)
 CRD 24=   0.1633 (  4) -0.5688 ( 14) -0.2665 ( 16) -0.3809 ( 19)  0.1277 ( 49)
           0.1484 ( 52) -0.1533 ( 59) -0.1076 ( 60)  0.1919 ( 62)  0.1641 ( 69)
           0.1933 ( 75)  0.1590 ( 87) -0.1016 (107)  0.1651 (112)  0.2218 (117)
           0.1132 (118)
 CRD 25=   0.1661 ( 10) -0.2482 ( 14) -0.6433 ( 16)  0.3140 ( 19)  0.1435 ( 51)
          -0.1743 ( 59) -0.1100 ( 62) -0.2074 ( 71) -0.1119 ( 75) -0.2103 ( 89)
           0.1560 (109) -0.2137 (113) -0.1206 (117)  0.1380 (119)
 CRD 26=   0.1861 (  4) -0.3215 (  6)  0.1230 ( 10)  0.1144 ( 14) -0.2150 ( 17)
           0.2769 ( 20) -0.1163 ( 32) -0.1076 ( 53) -0.1251 ( 58)  0.1123 ( 62)
           0.1948 ( 64) -0.1060 ( 69)  0.1077 ( 75)  0.1902 ( 76) -0.1418 ( 79)
          -0.1106 ( 87) -0.1858 (100) -0.3003 (101)  0.2675 (107)  0.1324 (108)
           0.1427 (109) -0.1027 (112)  0.1271 (117)  0.2096 (118)  0.1746 (120)
          -0.2046 (121)
 CRD 27=   0.1767 ( 21)  0.1260 ( 46)  0.1822 ( 55) -0.1427 ( 61) -0.1053 ( 63)
           0.1373 ( 65)  0.1046 ( 72) -0.1766 ( 74) -0.1293 ( 77)  0.1803 ( 81)
           0.3042 ( 82) -0.1123 ( 83) -0.1930 ( 84)  0.1311 ( 85) -0.2222 ( 90)
           0.1460 ( 92) -0.1183 ( 93) -0.2869 ( 94)  0.1864 ( 96)  0.2550 ( 97)
          -0.2596 ( 98)  0.2385 (111) -0.1479 (114) -0.2396 (115)  0.1951 (116)
 CRD 28=   0.4088 (  4)  0.2728 (  9) -0.2800 ( 10) -0.1565 ( 12)  0.2207 ( 13)
          -0.3826 ( 21) -0.2868 ( 22) -0.1194 ( 33)  0.2823 ( 41)  0.2429 ( 42)
          -0.2444 ( 43)  0.1063 ( 44)  0.1160 ( 46)  0.1123 ( 57)
 CRD 29=  -0.2221 (  3) -0.1364 (  6)  0.1018 (  8) -0.3536 (  9)  0.2298 ( 10)
           0.1187 ( 11) -0.2021 ( 12)  0.6271 ( 13)  0.2620 ( 38) -0.1039 ( 41)
           0.1333 ( 42) -0.2340 ( 44)
 CRD 30=  -0.2305 (  6) -0.1723 ( 21)  0.1069 ( 34)  0.1194 ( 56) -0.2467 ( 63)
           0.1801 ( 67)  0.2496 ( 73) -0.2521 ( 77) -0.2307 ( 82)  0.2498 ( 85)
          -0.1625 ( 86)  0.2456 ( 91)  0.1430 ( 92)  0.2283 ( 98) -0.1293 ( 99)
          -0.1809 (100)  0.1283 (105) -0.2345 (106)  0.1724 (109) -0.1431 (115)
           0.1781 (119) -0.1930 (122)
 CRD 31=   0.2418 (  4)  0.2803 (  5) -0.2554 (  7)  0.2448 (  8) -0.2726 (  9)
          -0.3147 ( 10) -0.2684 ( 11)  0.3136 ( 21) -0.1997 ( 22)  0.2319 ( 33)
           0.1786 ( 41) -0.2378 ( 57) -0.1031 ( 62)
 CRD 32=   0.2889 (  4) -0.3081 (  6)  0.1565 ( 10) -0.1599 ( 11)  0.1762 ( 12)
          -0.1053 ( 13) -0.2167 ( 14) -0.2013 ( 15)  0.1537 ( 16)  0.4339 ( 17)
           0.2686 ( 19) -0.2711 ( 20) -0.1206 ( 26) -0.1139 ( 42) -0.1290 ( 54)
           0.1024 (111)  0.1134 (113)
 CRD 33=   0.1009 (  6) -0.1001 ( 10)  0.1178 ( 14) -0.2905 ( 15) -0.2395 ( 16)
          -0.1309 ( 17)  0.3376 ( 18)  0.1948 ( 19) -0.1222 ( 41)  0.3547 ( 48)
          -0.1134 ( 49)  0.1033 ( 52) -0.3292 ( 54)  0.1437 ( 59) -0.1825 ( 60)
           0.1614 ( 62)  0.1350 ( 71)  0.1620 ( 75)  0.1514 ( 89) -0.1081 (112)
           0.1521 (117) -0.1137 (119) -0.1025 (120) -0.1040 (121) -0.1250 (122)
 CRD 34=  -0.2770 (  3)  0.2612 (  4)  0.1005 (  7) -0.1474 (  8)  0.1062 (  9)
          -0.2004 ( 10) -0.1919 ( 11)  0.2404 ( 12)  0.1193 ( 13)  0.1274 ( 15)
          -0.1002 ( 17)  0.1515 ( 22) -0.1156 ( 26)  0.1277 ( 28) -0.1262 ( 31)
          -0.1938 ( 33)  0.2110 ( 38)  0.1217 ( 39) -0.1752 ( 41) -0.1982 ( 42)
           0.2828 ( 43) -0.2800 ( 44)  0.1119 ( 54)  0.1973 ( 57) -0.1164 (102)
          -0.1124 (103) -0.1259 (113) -0.1230 (117)
 CRD 35=   0.3307 (  4) -0.2620 (  5)  0.2246 (  6) -0.1951 (  7) -0.1617 (  8)
           0.2691 (  9)  0.4287 ( 10) -0.2012 ( 11) -0.2013 ( 12)  0.2347 ( 13)
          -0.1690 ( 17)  0.2688 ( 21) -0.1204 ( 82)  0.1260 ( 98)  0.1058 (112)
 CRD 36=   0.1479 (  3) -0.3650 (  6) -0.1826 ( 13) -0.4351 ( 17)  0.1340 ( 18)
           0.1222 ( 20) -0.1053 ( 26) -0.1056 ( 34) -0.1054 ( 39)  0.1082 ( 46)
          -0.1236 ( 47) -0.1179 ( 56)  0.1205 ( 69)  0.1011 ( 70) -0.1203 ( 76)
          -0.1148 ( 84) -0.1488 (102)  0.1615 (103)  0.1808 (112)  0.1065 (113)
          -0.1193 (117) -0.1911 (118) -0.1588 (119)  0.1079 (121)  0.1519 (122)
 CRD 37=   0.1428 (  4) -0.1957 (  6)  0.1582 ( 10)  0.1604 ( 14) -0.1618 ( 16)
          -0.1143 ( 19)  0.1267 ( 32) -0.1083 ( 51)  0.1319 ( 58) -0.1008 ( 62)
           0.1044 ( 65)  0.1259 ( 71) -0.2534 ( 78)  0.2281 ( 82) -0.1006 ( 83)
           0.1373 ( 89) -0.1080 ( 91) -0.1794 ( 92)  0.1165 ( 97) -0.2119 ( 98)
           0.1070 (101) -0.1138 (107)  0.2421 (110)  0.1099 (113)  0.1810 (115)
           0.2076 (119) -0.1071 (121) -0.2671 (122)
 CRD 38=  -0.1535 (  5)  0.1017 (  8)  0.1924 ( 11) -0.1304 ( 15)  0.1060 ( 19)
          -0.1409 ( 20)  0.1312 ( 28) -0.1776 ( 31)  0.1257 ( 32)  0.1079 ( 34)
          -0.1096 ( 41)  0.1598 ( 46)  0.1679 ( 49) -0.1383 ( 53) -0.1524 ( 55)
          -0.1303 ( 56) -0.1403 ( 58)  0.1239 ( 63) -0.1597 ( 73) -0.1480 ( 77)
          -0.1413 ( 84)  0.1524 ( 85)  0.1546 ( 90)  0.1958 ( 94)  0.2088 ( 96)
           0.1181 ( 97) -0.1215 (100)  0.1101 (101) -0.1031 (102) -0.1225 (103)
          -0.1085 (106)  0.1226 (107) -0.1277 (109) -0.1728 (111) -0.1135 (113)
          -0.1743 (114) -0.1591 (116) -0.1007 (119)  0.1495 (120)  0.1023 (121)
          -0.1292 (122)
 CRD 39=   0.2009 (  4) -0.4431 (  5) -0.2604 (  7)  0.2500 (  8) -0.2261 ( 10)
           0.3599 ( 11)  0.1238 ( 15) -0.1126 ( 21)  0.2237 ( 22)  0.1861 ( 33)
           0.1053 ( 36) -0.1045 ( 38) -0.2571 ( 41) -0.1359 ( 45) -0.1761 ( 57)
           0.1132 (114)  0.1187 (116)
 CRD 40=   0.1637 (  3) -0.1391 (  4) -0.2493 (  5) -0.1877 (  6)  0.1533 (  7)
          -0.1006 ( 10) -0.3011 ( 11)  0.1647 ( 12)  0.4156 ( 13) -0.2192 ( 22)
           0.3331 ( 25) -0.1141 ( 35) -0.1800 ( 36) -0.1323 ( 38) -0.1132 ( 41)
           0.2349 ( 43)  0.3114 ( 44) -0.1423 ( 45)
 CRD 41=  -0.1393 ( 11)  0.1882 ( 12) -0.1144 ( 14) -0.1180 ( 16)  0.1051 ( 18)
          -0.1864 ( 19) -0.1418 ( 21)  0.1180 ( 23) -0.1400 ( 27)  0.1193 ( 35)
           0.1094 ( 40) -0.1189 ( 42) -0.1346 ( 52)  0.2063 ( 59)  0.1176 ( 60)
          -0.1543 ( 62) -0.1834 ( 67) -0.1550 ( 69) -0.1390 ( 77) -0.1508 ( 82)
          -0.1430 ( 84)  0.1272 ( 85)  0.1608 ( 86)  0.1774 ( 89)  0.1316 ( 90)
           0.1563 ( 92)  0.1623 ( 96)  0.1323 ( 98)  0.1206 ( 99) -0.1227 (105)
          -0.1206 (109) -0.1008 (112)  0.1004 (113) -0.1691 (115) -0.1742 (116)
           0.1461 (120)
 CRD 42=   0.2796 (  3) -0.1055 (  4) -0.2224 ( 12)  0.2426 ( 14) -0.1907 ( 16)
          -0.1096 ( 18) -0.1274 ( 20) -0.1429 ( 26)  0.1184 ( 28) -0.1184 ( 31)
           0.1260 ( 39)  0.1113 ( 44) -0.1361 ( 48)  0.1204 ( 49) -0.1332 ( 51)
           0.1053 ( 55) -0.1131 ( 67)  0.1508 ( 69)  0.1418 ( 71)  0.1185 ( 76)
           0.1322 ( 84) -0.1710 (101) -0.1282 (102) -0.2052 (103) -0.1573 (107)
           0.1875 (111)  0.2061 (114) -0.1039 (115) -0.1083 (120) -0.1816 (121)
 CRD 43=  -0.1021 (  8)  0.1469 ( 14) -0.2327 ( 15)  0.1413 ( 18) -0.1143 ( 37)
          -0.1527 ( 39)  0.1467 ( 49) -0.1280 ( 59)  0.1248 ( 60) -0.1149 ( 62)
          -0.2114 ( 63)  0.1120 ( 69) -0.1419 ( 72)  0.1616 ( 73) -0.1402 ( 74)
          -0.1977 ( 85)  0.1679 ( 86) -0.1225 ( 88) -0.1406 ( 89) -0.2161 ( 90)
           0.1492 ( 91)  0.1884 ( 92) -0.1274 ( 93) -0.1243 ( 94) -0.1544 ( 95)
          -0.1152 ( 96) -0.1942 ( 97)  0.1323 ( 99)  0.1071 (104)  0.1006 (106)
           0.1852 (112)  0.1036 (115)  0.1232 (118) -0.1170 (121)
 CRD 44=   0.1001 (  4)  0.1286 (  8) -0.1329 (  9)  0.1279 ( 10) -0.1327 ( 12)
           0.1091 ( 15)  0.2215 ( 18) -0.1603 ( 20) -0.1053 ( 21)  0.1069 ( 26)
           0.1493 ( 39) -0.1010 ( 42)  0.1076 ( 45) -0.1247 ( 53)  0.1015 ( 59)
           0.2160 ( 60) -0.1651 ( 62)  0.2183 ( 67)  0.1699 ( 76)  0.1899 ( 78)
           0.1237 ( 80) -0.1712 ( 86)  0.1329 ( 89) -0.1278 ( 90) -0.1149 (101)
           0.1085 (105) -0.1822 (110) -0.1148 (112) -0.1038 (114)  0.1412 (116)
           0.1504 (118) -0.1934 (119) -0.1476 (120)  0.1857 (122)
 CRD 45=   0.1996 (  3)  0.1008 (  6) -0.2554 (  8) -0.1202 ( 14)  0.1494 ( 16)
          -0.1379 ( 17)  0.3099 ( 18) -0.1160 ( 19) -0.1105 ( 20)  0.1326 ( 21)
          -0.1086 ( 26)  0.1881 ( 28) -0.1293 ( 33)  0.1149 ( 42) -0.1130 ( 45)
          -0.1316 ( 46) -0.1248 ( 47)  0.1433 ( 48) -0.1746 ( 49) -0.1216 ( 53)
           0.1998 ( 60)  0.1363 ( 64)  0.1250 ( 70)  0.1912 ( 76) -0.1550 ( 87)
          -0.1149 ( 89) -0.1709 ( 92) -0.1017 (102)  0.1459 (103)  0.1063 (109)
          -0.1954 (117)
 CRD 46=  -0.1354 (  3)  0.1429 (  4) -0.1375 (  5) -0.1022 (  6)  0.2965 (  7)
          -0.1092 (  9)  0.1583 ( 11) -0.1185 ( 12) -0.2143 ( 15)  0.1303 ( 17)
          -0.1892 ( 19)  0.1319 ( 20)  0.1310 ( 21)  0.1358 ( 26)  0.1104 ( 27)
          -0.1095 ( 28) -0.1167 ( 31) -0.1003 ( 35)  0.1568 ( 36) -0.1165 ( 38)
           0.1269 ( 47) -0.1631 ( 52)  0.1691 ( 53) -0.1504 ( 54)  0.1356 ( 57)
          -0.1548 ( 62) -0.1203 ( 64)  0.1232 ( 68)  0.1407 ( 69) -0.1245 ( 73)
           0.1145 ( 85)  0.1495 ( 90)  0.2126 (102) -0.1930 (115)
 CRD 47=  -0.2364 (  3) -0.1029 (  8)  0.1019 (  9)  0.2396 ( 12)  0.1834 ( 14)
          -0.1360 ( 16) -0.2145 ( 20)  0.1231 ( 23) -0.1344 ( 28)  0.1384 ( 31)
          -0.1112 ( 40) -0.1361 ( 53)  0.1077 ( 54)  0.1510 ( 58)  0.1361 ( 60)
           0.1642 ( 64) -0.1486 ( 68) -0.1115 ( 70)  0.1031 ( 72)  0.1207 ( 78)
           0.1061 ( 85)  0.1275 ( 90) -0.1727 ( 92)  0.1322 ( 95) -0.1386 (101)
          -0.1069 (107)  0.1002 (108)  0.2185 (112)  0.2103 (113) -0.1104 (115)
           0.2250 (118) -0.1301 (120)
 CRD 48=  -0.1017 (  5)  0.1001 (  6) -0.2056 (  9) -0.1312 ( 15)  0.1854 ( 16)
           0.1658 ( 19) -0.1811 ( 21) -0.1660 ( 24) -0.1249 ( 27) -0.1069 ( 29)
          -0.1106 ( 30)  0.1668 ( 35)  0.1120 ( 36) -0.1263 ( 38) -0.1326 ( 47)
           0.1141 ( 50)  0.1394 ( 51)  0.1425 ( 52) -0.1964 ( 59) -0.1228 ( 64)
          -0.2021 ( 66) -0.2219 ( 71)  0.1106 ( 72)  0.1673 ( 75)  0.1945 ( 87)
           0.1631 ( 88) -0.1717 ( 91)  0.1334 ( 93) -0.1667 (113)  0.1298 (119)
 CRD 49=  -0.2305 (  7)  0.2089 (  8)  0.1652 (  9) -0.2615 ( 15)  0.1125 ( 16)
           0.1647 ( 18) -0.1748 ( 19) -0.1507 ( 21)  0.1323 ( 24) -0.1544 ( 26)
          -0.1071 ( 27)  0.1056 ( 33) -0.1169 ( 36)  0.1289 ( 39) -0.1492 ( 52)
          -0.1098 ( 54) -0.1742 ( 59)  0.1254 ( 60)  0.1678 ( 64)  0.2235 ( 66)
          -0.1659 ( 71)  0.1028 ( 74) -0.1373 ( 75)  0.2095 ( 87)  0.1264 ( 88)
          -0.1226 ( 91) -0.1301 (106) -0.1647 (113) -0.1386 (117)
 CRD 50=  -0.1442 (  3) -0.1671 (  6)  0.1936 (  8)  0.1047 (  9) -0.1729 ( 12)
           0.1072 ( 16) -0.1154 ( 17) -0.1239 ( 20)  0.1818 ( 23) -0.1491 ( 28)
          -0.1261 ( 29) -0.1293 ( 31)  0.1185 ( 33) -0.1332 ( 35)  0.1924 ( 40)
          -0.1478 ( 47) -0.1153 ( 49) -0.1422 ( 53) -0.2056 ( 68)  0.1777 ( 70)
          -0.1183 ( 75) -0.2179 ( 80)  0.1105 ( 88) -0.1257 ( 97)  0.2277 (104)
           0.1001 (105) -0.1826 (112) -0.1747 (113)  0.1303 (114)  0.1496 (118)
 CRD 51=  -0.2091 (  3) -0.1546 (  5)  0.1502 ( 11)  0.2036 ( 12) -0.1208 ( 22)
           0.1011 ( 24) -0.1492 ( 27) -0.1428 ( 30) -0.1571 ( 32)  0.2014 ( 37)
           0.2032 ( 40)  0.1249 ( 41) -0.1113 ( 46) -0.1034 ( 48) -0.1391 ( 50)
           0.1212 ( 54)  0.1499 ( 58)  0.1601 ( 61)  0.1452 ( 66)  0.1073 ( 68)
           0.1181 ( 70) -0.1497 ( 72) -0.1711 ( 80)  0.1060 ( 82)  0.1048 ( 87)
           0.1659 ( 88)  0.1062 ( 89) -0.1592 ( 90)  0.2024 ( 91)  0.2168 ( 92)
           0.1050 ( 93) -0.1549 ( 99) -0.1020 (104) -0.1200 (105)  0.1309 (106)
 CRD 52=  -0.2159 ( 61) -0.1569 ( 65)  0.1557 ( 67) -0.1178 ( 73) -0.1001 ( 74)
           0.1845 ( 77)  0.2744 ( 81)  0.1782 ( 83) -0.1273 ( 86)  0.2183 ( 90)
          -0.1463 ( 93) -0.1719 ( 94)  0.1033 ( 95)  0.1289 ( 96) -0.3453 ( 97)
          -0.2169 ( 99)  0.1278 (100) -0.1282 (104)  0.1843 (105)  0.1383 (106)
          -0.1019 (109)  0.1039 (110) -0.2562 (114)  0.1127 (115)  0.2601 (116)
           0.1206 (120) -0.1496 (121)
 CRD 53=   0.1040 ( 14)  0.1525 ( 37)  0.1047 ( 40)  0.1143 ( 50) -0.1043 ( 51)
          -0.1706 ( 61)  0.1049 ( 68) -0.1640 ( 74)  0.1183 ( 78) -0.2578 ( 79)
           0.2088 ( 81)  0.1205 ( 90) -0.1014 ( 93) -0.1891 ( 97) -0.2957 (100)
           0.1129 (106)  0.2647 (108)  0.2465 (109) -0.1037 (110)  0.1237 (115)
          -0.1219 (119) -0.2830 (120)  0.3396 (121)
 CRD 54=   0.1512 (  3)  0.3634 ( 23) -0.1463 ( 24) -0.1222 ( 39)  0.3015 ( 40)
           0.1050 ( 50)  0.1166 ( 61) -0.2848 ( 65) -0.1322 ( 72)  0.2261 ( 74)
          -0.1664 ( 81)  0.2632 ( 83) -0.1437 ( 90)  0.2067 ( 97) -0.1944 ( 99)
           0.2648 (105) -0.1498 (114) -0.1978 (115)  0.1923 (116)

 THE DETERMINANT OF THE G MATRIX IS 10**(   -20)


                     --------------------
                     INTERNAL COORDINATES
                     --------------------

                 - - ATOMS - -         COORDINATE      COORDINATE
 NO.   TYPE    I  J  K  L  M  N        (BOHR,RAD)       (ANG,DEG)
 ----------------------------------------------------------------
   1 STRETCH   3 10                     3.7843593       2.0025968
   2 STRETCH   8 11                     3.7763011       1.9983326
   3 STRETCH   1  3                     2.7928064       1.4778896
   4 STRETCH   1 13                     2.0534264       1.0866265
   5 STRETCH   1  6                     2.5344581       1.3411776
   6 STRETCH   2 14                     2.0506064       1.0851343
   7 STRETCH   2  3                     2.5726854       1.3614066
   8 STRETCH   2 11                     2.8342636       1.4998278
   9 STRETCH   3 15                     2.0720695       1.0964921
  10 STRETCH   4  5                     2.3235083       1.2295478
  11 STRETCH   4  6                     2.8108727       1.4874499
  12 STRETCH   4 11                     2.8729085       1.5202778
  13 STRETCH   6  7                     2.0433634       1.0813014
  14 STRETCH   8 16                     2.0659810       1.0932702
  15 STRETCH   8  9                     2.8403781       1.5030635
  16 STRETCH   8 17                     2.0647257       1.0926059
  17 STRETCH   9 18                     2.0547205       1.0873113
  18 STRETCH   9 10                     2.5669782       1.3583865
  19 STRETCH  10 20                     2.0655617       1.0930482
  20 STRETCH  10 19                     2.0748363       1.0979561
  21 STRETCH  11 12                     2.0629324       1.0916569
  22 BEND      1  6  7                  2.1539813     123.4140350
  23 BEND      1  3 10                  1.8439597     105.6511063
  24 BEND      1  3  2                  2.0310226     116.3690212
  25 BEND      1  6  4                  2.0773028     119.0206821
  26 BEND      1  3 15                  2.0087004     115.0900550
  27 BEND      2 11  4                  1.9750729     113.1633407
  28 BEND      2  3 15                  2.0694253     118.5693343
  29 BEND      2 11  8                  1.8055178     103.4485476
  30 BEND      2  3 10                  1.7637701     101.0565818
  31 BEND      2 11 12                  2.0156374     115.4875155
  32 BEND      3 10 20                  1.8012716     103.2052629
  33 BEND      3  2 14                  2.1095467     120.8681240
  34 BEND      3 10 19                  1.5052406      86.2439354
  35 BEND      3  2 11                  2.0348846     116.5902976
  36 BEND      3  1  6                  2.1483438     123.0910299
  37 BEND      3 10  9                  1.8755712     107.4623158
  38 BEND      3  1 13                  2.0344292     116.5642051
  39 BEND      4 11 12                  1.9791828     113.3988201
  40 BEND      4 11  8                  1.8069852     103.5326281
  41 BEND      4  6  7                  2.0518141     117.5602902
  42 BEND      5  4 11                  2.1400681     122.6168693
  43 BEND      5  4  6                  2.0865881     119.5526937
  44 BEND      6  1 13                  2.0997446     120.3065009
  45 BEND      6  4 11                  2.0551014     117.7486367
  46 BEND      8 11 12                  1.8540561     106.2295913
  47 BEND      8  9 10                  2.1035258     120.5231489
  48 BEND      8  9 18                  2.0472316     117.2977288
  49 BEND      9  8 17                  1.9836019     113.6520188
  50 BEND      9  8 11                  1.8422638     105.5539400
  51 BEND      9  8 16                  1.9903683     114.0397027
  52 BEND      9 10 19                  2.0551646     117.7522597
  53 BEND      9 10 20                  2.0601993     118.0407223
  54 BEND     10  9 18                  2.0905988     119.7824881
  55 BEND     10  3 15                  1.6614922      95.1964899
  56 BEND     11  8 16                  1.8287756     104.7811255
  57 BEND     11  2 14                  2.0730767     118.7785474
  58 BEND     11  8 17                  1.8187808     104.2084622
  59 BEND     16  8 17                  1.9777698     113.3178624
  60 BEND     19 10 20                  2.0376554     116.7490529
  61 TORSION   1  6  4 11              -0.0005134      -0.0294139
  62 TORSION   1  3 10 19               3.1146122     178.4541330
  63 TORSION   1  6  4  5               3.0851919     176.7684757
  64 TORSION   1  3 10 20              -1.1333629     -64.9369098
  65 TORSION   1  3  2 11              -0.7266945     -41.6365281
  66 TORSION   1  3 10  9               1.0561730      60.5142537
  67 TORSION   1  3  2 14               2.8009346     160.4817334
  68 TORSION   2  3 10  9              -1.0670127     -61.1353222
  69 TORSION   2 11  8 17               2.9217126     167.4018009
  70 TORSION   2 11  8  9               0.8272639      47.3987288
  71 TORSION   2 11  8 16              -1.2796122     -73.3163787
  72 TORSION   2 11  4  6              -0.3579799     -20.5107396
  73 TORSION   2 11  4  5               2.8413340     162.7964445
  74 TORSION   2  3  1  6               0.3404380      19.5056621
  75 TORSION   2  3 10 19               0.9914266      56.8045571
  76 TORSION   2  3 10 20               3.0266368     173.4135143
  77 TORSION   2  3  1 13              -2.7619281    -158.2468232
  78 TORSION   3 10  9 18              -1.7934543    -102.7573594
  79 TORSION   3 10  9  8               1.0332591      59.2013866
  80 TORSION   3  2 11  8              -1.2081507     -69.2219379
  81 TORSION   3  1  6  4               0.0326121       1.8685339
  82 TORSION   3  1  6  7              -3.1235294    -178.9650524
  83 TORSION   3  2 11  4               0.7352067      42.1242387
  84 TORSION   3  2 11 12               3.0571479     175.1616730
  85 TORSION   4  6  1 13               3.1335646     179.5400250
  86 TORSION   4 11  2 14              -2.7840268    -159.5129833
  87 TORSION   4 11  8 17               0.8576025      49.1370063
  88 TORSION   4 11  8  9              -1.2368462     -70.8660659
  89 TORSION   4 11  8 16               2.9394630     168.4188267
  90 TORSION   5  4  6  7              -0.0427023      -2.4466587
  91 TORSION   5  4 11  8              -1.4993960     -85.9090615
  92 TORSION   5  4 11 12               0.5019530      28.7597897
  93 TORSION   6  1  3 10              -1.5998903     -91.6669600
  94 TORSION   6  1  3 15               2.8752397     164.7390978
  95 TORSION   6  4 11  8               1.5844754      90.7837543
  96 TORSION   6  4 11 12              -2.6973609    -154.5473944
  97 TORSION   7  6  1 13              -0.0225769      -1.2935613
  98 TORSION   7  6  4 11              -3.1284075    -179.2445483
  99 TORSION   8 11  2 14               1.5558012      89.1408401
 100 TORSION   8  9 10 19              -0.6255731     -35.8426979
 101 TORSION   8  9 10 20               3.0584035     175.2336109
 102 TORSION   9 10  3 15               3.1136193     178.3972436
 103 TORSION   9  8 11 12               2.9571533     169.4324037
 104 TORSION  10  3  2 11               1.2596284      72.1713921
 105 TORSION  10  3  2 14              -1.4959277     -85.7103463
 106 TORSION  10  3  1 13               1.5809289      90.5805547
 107 TORSION  10  9  8 17              -2.9288997    -167.8135923
 108 TORSION  10  9  8 11              -0.9465322     -54.2323003
 109 TORSION  10  9  8 16               1.0512539      60.2324127
 110 TORSION  11  8  9 18               1.8877658     108.1610119
 111 TORSION  11  2  3 15               3.0435156     174.3806005
 112 TORSION  12 11  8 17              -1.2315833     -70.5645241
 113 TORSION  12 11  8 16               0.8502772      48.7172963
 114 TORSION  12 11  2 14              -0.4620855     -26.4755490
 115 TORSION  13  1  3 15              -0.2271265     -13.0133875
 116 TORSION  14  2  3 15               0.2879595      16.4988621
 117 TORSION  15  3 10 19              -1.1111268     -63.6628771
 118 TORSION  15  3 10 20               0.9240834      52.9460801
 119 TORSION  16  8  9 18              -2.3976334    -137.3742750
 120 TORSION  17  8  9 18              -0.0946017      -5.4202801
 121 TORSION  18  9 10 20               0.2316901      13.2748650
 122 TORSION  18  9 10 19               2.8308988     162.1985562

     ------------------------------------------
     THE POINT GROUP IS C1 , NAXIS= 0, ORDER= 1
     ------------------------------------------

     DIMENSIONS OF THE SYMMETRY SUBSPACES ARE
 A   =   60

 ..... DONE SETTING UP THE RUN .....
 STEP CPU TIME =     0.04 TOTAL CPU TIME =          0.0 (      0.0 MIN)
 TOTAL WALL CLOCK TIME=          0.0 SECONDS, CPU UTILIZATION IS    80.00%


          -----------------------------
          STATIONARY POINT LOCATION RUN
          -----------------------------


           ** GEOMETRY CONSTRAINTS ARE BEING APPLIED. **

          TRANSFORMING DISPLACEMENT FROM INTERNALS TO CARTESIANS
          THE ROOT MEAN SQUARE ERROR IN ITERATION   1 IS   0.00000150
          THE ROOT MEAN SQUARE ERROR IN ITERATION   2 IS   0.00000000
 WARNING! THE RADIUS IN CARTESIANS IS    0.00948
 OBTAINING INITIAL HESSIAN, HESS=CALC    

     ---------------------------------
     HESSIAN MATRIX CONTROL PARAMETERS
     ---------------------------------
     METHOD=ANALYTIC   NVIB  =       2   VIBSIZ= 0.01000
     RDHESS=       F   PURIFY=       F   PRTIFC=       F
     VIBANL=       F   DECOMP=       F   PROJCT=       F
     SCLFAC= 1.00000   PRTSCN=       F   NPRT  =       0
     PULCOR=       F   NPUN  =       0   REDOVB=       T
     HSSTYP=GENERAL 
 Old integral subroutine is used

     ------------------------------
     CPHF RESPONSE SOLUTION OPTIONS
     ------------------------------
     POLAR  =       F     NWORD  =       0
     CPHF   =AO      

          ********************
          1 ELECTRON INTEGRALS
          ********************
 ...... END OF ONE-ELECTRON INTEGRALS ......
 STEP CPU TIME =     0.04 TOTAL CPU TIME =          0.1 (      0.0 MIN)
 TOTAL WALL CLOCK TIME=          0.1 SECONDS, CPU UTILIZATION IS    88.89%

          -------------
          GUESS OPTIONS
          -------------
          GUESS =HUCKEL            NORB  =       0          NORDER=       0
          MIX   =       F          PRTMO =       F          PUNMO =       F
          TOLZ  = 1.0E-08          TOLE  = 1.0E-05
          SYMDEN=       F          PURIFY=       F

 INITIAL GUESS ORBITALS GENERATED BY HUCKEL   ROUTINE.
 HUCKEL GUESS REQUIRES     53820 WORDS.

 SYMMETRIES FOR INITIAL GUESS ORBITALS FOLLOW.   BOTH SET(S).
    36 ORBITALS ARE OCCUPIED (   10 CORE ORBITALS).
    11=A       12=A       13=A       14=A       15=A       16=A       17=A   
    18=A       19=A       20=A       21=A       22=A       23=A       24=A   
    25=A       26=A       27=A       28=A       29=A       30=A       31=A   
    32=A       33=A       34=A       35=A       36=A       37=A       38=A   
    39=A       40=A       41=A       42=A       43=A       44=A       45=A   
    46=A   
 ...... END OF INITIAL ORBITAL SELECTION ......
 STEP CPU TIME =     0.02 TOTAL CPU TIME =          0.1 (      0.0 MIN)
 TOTAL WALL CLOCK TIME=          0.1 SECONDS, CPU UTILIZATION IS    83.33%

                    ----------------------
                    AO INTEGRAL TECHNOLOGY
                    ----------------------
     S,P,L SHELL ROTATED AXIS INTEGRALS, REPROGRAMMED BY
        KAZUYA ISHIMURA (IMS) AND JOSE SIERRA (SYNSTAR).
     S,P,D,L SHELL ROTATED AXIS INTEGRALS PROGRAMMED BY
        KAZUYA ISHIMURA (INSTITUTE FOR MOLECULAR SCIENCE).
     S,P,D,F,G SHELL TO TOTAL QUARTET ANGULAR MOMENTUM SUM 5,
        ERIC PROGRAM BY GRAHAM FLETCHER (ELORET AND NASA ADVANCED
        SUPERCOMPUTING DIVISION, AMES RESEARCH CENTER).
     S,P,D,F,G,L SHELL GENERAL RYS QUADRATURE PROGRAMMED BY
        MICHEL DUPUIS (PACIFIC NORTHWEST NATIONAL LABORATORY).

          --------------------
          2 ELECTRON INTEGRALS
          --------------------

 THE -PK- OPTION IS OFF, THE INTEGRALS ARE NOT IN SUPERMATRIX FORM.
 STORING   15000 INTEGRALS/RECORD ON DISK, USING 12 BYTES/INTEGRAL.
 TWO ELECTRON INTEGRAL EVALUATION REQUIRES   89821 WORDS OF MEMORY.
 SCHWARZ INEQUALITY OVERHEAD:      1797 INTEGRALS, T=        0.00
 II,JST,KST,LST =  1  1  1  1 NREC =         1 INTLOC =    1
 II,JST,KST,LST =  2  1  1  1 NREC =         1 INTLOC =    2
 II,JST,KST,LST =  3  1  1  1 NREC =         1 INTLOC =   34
 II,JST,KST,LST =  4  1  1  1 NREC =         1 INTLOC =  124
 II,JST,KST,LST =  5  1  1  1 NREC =         1 INTLOC = 1312
 II,JST,KST,LST =  6  1  1  1 NREC =         1 INTLOC = 1946
 II,JST,KST,LST =  7  1  1  1 NREC =         1 INTLOC = 6854
 II,JST,KST,LST =  8  1  1  1 NREC =         1 INTLOC = 8469
 II,JST,KST,LST =  9  1  1  1 NREC =         2 INTLOC = 5889
 II,JST,KST,LST = 10  1  1  1 NREC =         2 INTLOC = 9207
 II,JST,KST,LST = 11  1  1  1 NREC =         4 INTLOC =  947
 II,JST,KST,LST = 12  1  1  1 NREC =         4 INTLOC = 7884
 II,JST,KST,LST = 13  1  1  1 NREC =         7 INTLOC = 6860
 II,JST,KST,LST = 14  1  1  1 NREC =         8 INTLOC = 5961
 II,JST,KST,LST = 15  1  1  1 NREC =         9 INTLOC = 1379
 II,JST,KST,LST = 16  1  1  1 NREC =        14 INTLOC = 2264
 II,JST,KST,LST = 17  1  1  1 NREC =        15 INTLOC = 3168
 II,JST,KST,LST = 18  1  1  1 NREC =        22 INTLOC =10961
 II,JST,KST,LST = 19  1  1  1 NREC =        24 INTLOC = 4227
 II,JST,KST,LST = 20  1  1  1 NREC =        34 INTLOC =11264
 II,JST,KST,LST = 21  1  1  1 NREC =        37 INTLOC = 4925
 II,JST,KST,LST = 22  1  1  1 NREC =        52 INTLOC = 8056
 II,JST,KST,LST = 23  1  1  1 NREC =        56 INTLOC =13653
 II,JST,KST,LST = 24  1  1  1 NREC =        61 INTLOC = 6224
 II,JST,KST,LST = 25  1  1  1 NREC =        66 INTLOC = 3631
 II,JST,KST,LST = 26  1  1  1 NREC =        71 INTLOC = 3820
 II,JST,KST,LST = 27  1  1  1 NREC =        76 INTLOC = 8745
 II,JST,KST,LST = 28  1  1  1 NREC =        82 INTLOC = 4859
 II,JST,KST,LST = 29  1  1  1 NREC =        88 INTLOC = 5903
 II,JST,KST,LST = 30  1  1  1 NREC =        94 INTLOC = 8857
 SCHWARZ INEQUALITY TEST SKIPPED       23818 INTEGRAL BLOCKS.
 TOTAL NUMBER OF NONZERO TWO-ELECTRON INTEGRALS =             1499877
        100 INTEGRAL RECORDS WERE STORED ON DISK FILE  8.
  ...... END OF TWO-ELECTRON INTEGRALS .....
 STEP CPU TIME =     0.26 TOTAL CPU TIME =          0.4 (      0.0 MIN)
 TOTAL WALL CLOCK TIME=          0.4 SECONDS, CPU UTILIZATION IS    94.74%

          --------------------------
                 RHF SCF CALCULATION
          --------------------------

     NUCLEAR ENERGY =       507.9654723486
     MAXIT =   30     NPUNCH=    2
     EXTRAP=T  DAMP=F  SHIFT=F  RSTRCT=F  DIIS=F  DEM=F  SOSCF=T
     DENSITY MATRIX CONV=  1.00E-05
     SOSCF WILL OPTIMIZE     864 ORBITAL ROTATIONS, SOGTOL=   0.250
     MEMORY REQUIRED FOR RHF ITERS=     59496 WORDS.

 ITER EX DEM     TOTAL ENERGY        E CHANGE  DENSITY CHANGE     ORB. GRAD
   1  0  0     -415.5110155985  -415.5110155985   0.549241680   0.000000000
          ---------------START SECOND ORDER SCF---------------
   2  1  0     -416.0223284158    -0.5113128173   0.304519696   0.059359085
   3  2  0     -416.0545728917    -0.0322444759   0.149730230   0.049771531
   4  3  0     -416.0883191880    -0.0337462963   0.024973845   0.005972361
   5  4  0     -416.0892449631    -0.0009257750   0.008453423   0.003049346
   6  5  0     -416.0893845303    -0.0001395672   0.002134987   0.000878662
   7  6  0     -416.0894050293    -0.0000204990   0.000943691   0.000252491
   8  7  0     -416.0894072789    -0.0000022495   0.000371945   0.000107629
   9  8  0     -416.0894077449    -0.0000004660   0.000150374   0.000032472
  10  9  0     -416.0894078045    -0.0000000596   0.000068610   0.000012588
  11 10  0     -416.0894078122    -0.0000000077   0.000025334   0.000003874
  12 11  0     -416.0894078132    -0.0000000010   0.000010809   0.000003064
  13 12  0     -416.0894078133    -0.0000000002   0.000004605   0.000000883

          -----------------
          DENSITY CONVERGED
          -----------------
     TIME TO FORM FOCK OPERATORS=       0.3 SECONDS (       0.0 SEC/ITER)
     TIME TO SOLVE SCF EQUATIONS=       0.1 SECONDS (       0.0 SEC/ITER)

 FINAL RHF ENERGY IS     -416.0894078133 AFTER  13 ITERATIONS

          ------------
          EIGENVECTORS
          ------------

                      1          2          3          4          5
                  -20.2501   -11.1086   -11.0541   -11.0530   -11.0522
                     A          A          A          A          A   
    1  C  1  S    0.000007  -0.000405  -0.010198  -0.003537  -0.000795
    2  C  1  S    0.000017   0.000120  -0.006727  -0.000422  -0.000087
    3  C  1  X    0.000084  -0.000018   0.004288   0.000239   0.000054
    4  C  1  Y    0.000020   0.000005  -0.000903   0.000107   0.000022
    5  C  1  Z   -0.000003  -0.000005   0.000645  -0.000007  -0.000013
    6  C  2  S    0.000005  -0.000340   0.008132  -0.000919  -0.001361
    7  C  2  S    0.000012   0.000064  -0.007109  -0.005870  -0.002035
    8  C  2  X   -0.000078  -0.000083  -0.003147  -0.000793  -0.000238
    9  C  2  Y   -0.000016  -0.000015  -0.002427   0.003810   0.001288
   10  C  2  Z   -0.000013  -0.000042   0.002578  -0.000833  -0.000208
   11  C  3  S    0.000003  -0.000345   0.991142   0.033034   0.006581
   12  C  3  S    0.000015  -0.000056   0.036880   0.001344   0.000342
   13  C  3  X   -0.000003  -0.000055  -0.000289   0.000001  -0.000013
   14  C  3  Y    0.000037   0.000099  -0.000281   0.000057   0.000018
   15  C  3  Z   -0.000008  -0.000051   0.001818   0.000087   0.000046
   16  C  4  S    0.000557   0.992514   0.000279   0.002704   0.001506
   17  C  4  S   -0.007137   0.033131   0.000159  -0.005510  -0.001905
   18  C  4  X   -0.001858   0.000476  -0.000141   0.003908   0.001277
   19  C  4  Y    0.005307  -0.000318  -0.000110  -0.000780  -0.000226
   20  C  4  Z   -0.002864  -0.000055   0.000072   0.000689   0.000289
   21  O  5  S    0.994273   0.000182   0.000006  -0.000016  -0.000017
   22  O  5  S    0.025900  -0.005829  -0.000065   0.000219   0.000138
   23  O  5  X   -0.001600   0.000506   0.000023  -0.000182  -0.000092
   24  O  5  Y    0.004653  -0.001515  -0.000033   0.000070   0.000039
   25  O  5  Z   -0.002521   0.000846   0.000012  -0.000021  -0.000046
   26  C  6  S   -0.000026  -0.000833  -0.000696  -0.000717  -0.000134
   27  C  6  S    0.000373  -0.006012   0.000270   0.000145   0.000075
   28  C  6  X    0.000202   0.002790  -0.000137  -0.000036  -0.000028
   29  C  6  Y   -0.000386   0.002895   0.000062   0.000061  -0.000009
   30  C  6  Z    0.000216  -0.001335  -0.000008  -0.000006  -0.000007
   31  H  7  S   -0.000215   0.000023  -0.000034  -0.000050  -0.000018
   32  C  8  S   -0.000008  -0.000479   0.004569  -0.325330   0.937490
   33  C  8  S    0.000038   0.000041   0.000278  -0.013762   0.031959
   34  C  8  X    0.000055  -0.000300  -0.000017  -0.000251  -0.000303
   35  C  8  Y   -0.000011  -0.000055   0.000029  -0.000759  -0.001111
   36  C  8  Z    0.000021  -0.000097   0.000040  -0.001523  -0.002252
   37  C  9  S    0.000001  -0.000123  -0.000749  -0.000082  -0.001509
   38  C  9  S   -0.000014  -0.000024   0.000200   0.001943  -0.005512
   39  C  9  X    0.000000  -0.000054  -0.000028  -0.000762   0.002048
   40  C  9  Y    0.000002  -0.000023   0.000216  -0.000821   0.002258
   41  C  9  Z   -0.000003  -0.000073  -0.000031   0.000910  -0.002575
   42  C 10  S   -0.000000   0.000040  -0.021570  -0.000248  -0.002474
   43  C 10  S    0.000004   0.000029  -0.003421  -0.000116   0.000034
   44  C 10  X   -0.000001   0.000011  -0.000591  -0.000019  -0.000051
   45  C 10  Y   -0.000001  -0.000015  -0.000920  -0.000038   0.000017
   46  C 10  Z    0.000002   0.000024  -0.002310  -0.000098  -0.000040
   47  C 11  S   -0.000023  -0.002054  -0.033328   0.936587   0.326058
   48  C 11  S    0.000267  -0.005550  -0.001125   0.033614   0.009058
   49  C 11  X    0.000017  -0.003845  -0.000168   0.000339   0.000465
   50  C 11  Y   -0.000386   0.000921  -0.000080   0.000560   0.001338
   51  C 11  Z    0.000242  -0.000969   0.000129   0.000754   0.002533
   52  H 12  S   -0.000151  -0.000035   0.000105  -0.006521  -0.002189
   53  H 13  S   -0.000024  -0.000061   0.000159  -0.000021  -0.000008
   54  H 14  S   -0.000023  -0.000065   0.000073   0.000070   0.000054
   55  H 15  S   -0.000016  -0.000035  -0.006800  -0.000311  -0.000076
   56  H 16  S    0.000014  -0.000130  -0.000037   0.002290  -0.006428
   57  H 17  S   -0.000019  -0.000259  -0.000031   0.002298  -0.006424
   58  H 18  S    0.000009  -0.000033   0.000018  -0.000020   0.000098
   59  H 19  S   -0.000001  -0.000007   0.000070   0.000055  -0.000094
   60  H 20  S    0.000000   0.000002   0.000279   0.000024  -0.000051

                      6          7          8          9         10
                  -11.0457   -11.0411   -11.0230   -11.0194   -11.0098
                     A          A          A          A          A   
    1  C  1  S    0.992024   0.006608  -0.015528   0.001483   0.000773
    2  C  1  S    0.035854   0.000140  -0.008423   0.000132  -0.000059
    3  C  1  X    0.000121  -0.000009  -0.001332   0.000041   0.000054
    4  C  1  Y   -0.000959   0.000041   0.003788   0.000137   0.000144
    5  C  1  Z    0.000718   0.000045  -0.002313  -0.000198   0.000101
    6  C  2  S   -0.001444  -0.001567  -0.008892   0.992128   0.002262
    7  C  2  S   -0.000002  -0.000179  -0.000442   0.035965   0.000089
    8  C  2  X   -0.000120   0.000013  -0.000201   0.000700   0.000001
    9  C  2  Y    0.000028   0.000064   0.000054  -0.000047   0.000062
   10  C  2  Z   -0.000075   0.000029  -0.000012  -0.002253   0.000096
   11  C  3  S    0.011136   0.022548   0.000627  -0.007370   0.000606
   12  C  3  S   -0.005682  -0.001844   0.000436  -0.007846   0.000035
   13  C  3  X   -0.004053   0.000308   0.000110   0.003225  -0.000047
   14  C  3  Y    0.000950   0.001097   0.000004   0.002123   0.000261
   15  C  3  Z   -0.000946   0.002270   0.000059  -0.002640  -0.000065
   16  C  4  S    0.000503  -0.000033   0.001813   0.000431   0.000155
   17  C  4  S    0.000094   0.000007  -0.006225   0.000039  -0.000024
   18  C  4  X    0.000118   0.000001  -0.002973  -0.000010   0.000000
   19  C  4  Y   -0.000155   0.000003  -0.002788  -0.000163  -0.000013
   20  C  4  Z    0.000099  -0.000019   0.001294  -0.000021   0.000111
   21  O  5  S    0.000014  -0.000000  -0.000019   0.000009   0.000001
   22  O  5  S   -0.000128   0.000002   0.000307  -0.000079  -0.000014
   23  O  5  X   -0.000002   0.000000   0.000059   0.000031   0.000004
   24  O  5  Y   -0.000065   0.000000   0.000174  -0.000016  -0.000015
   25  O  5  Z    0.000030  -0.000001  -0.000086   0.000035  -0.000015
   26  C  6  S    0.016121   0.000246   0.992009   0.008974   0.000922
   27  C  6  S   -0.007131  -0.000000   0.036391   0.000275   0.000029
   28  C  6  X    0.001344  -0.000004  -0.000892   0.000169   0.000040
   29  C  6  Y   -0.003671   0.000002   0.001073  -0.000045   0.000036
   30  C  6  Z    0.002225  -0.000012  -0.000753  -0.000050   0.000065
   31  H  7  S    0.000023  -0.000001  -0.006843  -0.000119  -0.000022
   32  C  8  S   -0.000391   0.002422  -0.000121   0.001007   0.002319
   33  C  8  S    0.000012   0.000185   0.000032   0.000030  -0.005701
   34  C  8  X    0.000024   0.000057   0.000020   0.000070  -0.002230
   35  C  8  Y    0.000022  -0.000118   0.000015  -0.000306  -0.002398
   36  C  8  Z   -0.000005  -0.000038   0.000001   0.000001   0.002710
   37  C  9  S   -0.000797   0.008898  -0.000867  -0.002228   0.992174
   38  C  9  S   -0.000039  -0.007275  -0.000079  -0.000020   0.035931
   39  C  9  X   -0.000107   0.000737  -0.000037  -0.000003   0.000454
   40  C  9  Y   -0.000026  -0.004549  -0.000032  -0.000037   0.001746
   41  C  9  Z   -0.000133   0.000404  -0.000088  -0.000118   0.000959
   42  C 10  S   -0.006775   0.991861  -0.000170   0.001828  -0.008247
   43  C 10  S   -0.000248   0.036284   0.000032   0.000154  -0.007894
   44  C 10  X   -0.000262  -0.000193   0.000021   0.000132  -0.000812
   45  C 10  Y    0.000058  -0.001556  -0.000025   0.000251   0.004617
   46  C 10  Z   -0.000090  -0.000570   0.000016  -0.000358  -0.000386
   47  C 11  S    0.003305   0.000345   0.000650   0.002530   0.000598
   48  C 11  S    0.000096   0.000055   0.000248  -0.005785   0.000021
   49  C 11  X   -0.000116  -0.000008   0.000025   0.000701  -0.000142
   50  C 11  Y   -0.000078   0.000028   0.000047  -0.004087  -0.000109
   51  C 11  Z    0.000063   0.000052   0.000031   0.000934   0.000152
   52  H 12  S   -0.000076  -0.000018  -0.000068   0.000024  -0.000112
   53  H 13  S   -0.006837  -0.000019   0.000213  -0.000113  -0.000022
   54  H 14  S   -0.000076   0.000135   0.000010  -0.006862  -0.000024
   55  H 15  S   -0.000016  -0.000014  -0.000082   0.000168  -0.000115
   56  H 16  S   -0.000000  -0.000011  -0.000001  -0.000053  -0.000095
   57  H 17  S    0.000004  -0.000113  -0.000003  -0.000135   0.000040
   58  H 18  S   -0.000051   0.000051  -0.000069  -0.000019  -0.006894
   59  H 19  S   -0.000080  -0.006680   0.000007  -0.000504   0.000062
   60  H 20  S   -0.000038  -0.006797   0.000003  -0.000174   0.000151

                     11         12         13         14         15
                   -1.3036    -1.0874    -1.0067    -0.9590    -0.9348
                     A          A          A          A          A   
    1  C  1  S   -0.006703  -0.107907   0.085799   0.102883  -0.022766
    2  C  1  S    0.015982   0.275690  -0.226593  -0.279296   0.065209
    3  C  1  X   -0.000027  -0.045053  -0.006822  -0.058785  -0.073415
    4  C  1  Y   -0.006449  -0.031699   0.040240   0.066461   0.071340
    5  C  1  Z    0.003664   0.014214  -0.033305  -0.037067  -0.047285
    6  C  2  S   -0.005259  -0.108532   0.006574  -0.130632  -0.029240
    7  C  2  S    0.012139   0.275032  -0.016966   0.354632   0.076013
    8  C  2  X    0.003128   0.058824  -0.018902   0.017611   0.035062
    9  C  2  Y   -0.004160  -0.002886  -0.012246  -0.028625   0.113144
   10  C  2  Z    0.000226  -0.041238  -0.006288  -0.016671  -0.068966
   11  C  3  S   -0.003660  -0.127915   0.024274  -0.045292  -0.122104
   12  C  3  S    0.008699   0.333735  -0.064299   0.120752   0.342878
   13  C  3  X    0.000876   0.001474  -0.043571  -0.111687  -0.015925
   14  C  3  Y   -0.002476  -0.046970  -0.000128  -0.023633   0.015049
   15  C  3  Z    0.001984   0.040782  -0.037790   0.052653   0.003472
   16  C  4  S   -0.128074  -0.034382   0.022937   0.002060   0.076929
   17  C  4  S    0.298075   0.094000  -0.064396  -0.006704  -0.224012
   18  C  4  X    0.044894  -0.022489  -0.027690  -0.106301   0.064145
   19  C  4  Y   -0.127102   0.074073  -0.053398  -0.032130  -0.101634
   20  C  4  Z    0.068234  -0.043165   0.019324   0.012830   0.066490
   21  O  5  S   -0.213751   0.038268  -0.017184  -0.002946  -0.055729
   22  O  5  S    0.747700  -0.143018   0.066347   0.012199   0.222361
   23  O  5  X   -0.046685   0.002205  -0.008953  -0.027631   0.015278
   24  O  5  Y    0.137541  -0.006061  -0.005539  -0.007985  -0.017655
   25  O  5  Z   -0.075016   0.002718   0.000358   0.003708   0.012932
   26  C  6  S   -0.024523  -0.079575   0.086271   0.119950   0.070047
   27  C  6  S    0.058481   0.201685  -0.225887  -0.321375  -0.190605
   28  C  6  X   -0.020855  -0.041857   0.026981   0.008927   0.032537
   29  C  6  Y   -0.020060   0.039100  -0.039243  -0.054198   0.030106
   30  C  6  Z    0.008987  -0.026756   0.020930   0.036211  -0.012370
   31  H  7  S    0.010300   0.034200  -0.050662  -0.087474  -0.048720
   32  C  8  S   -0.002699  -0.037893  -0.096877   0.011746   0.090790
   33  C  8  S    0.006826   0.104215   0.270692  -0.030286  -0.265216
   34  C  8  X    0.001259   0.011399   0.025775  -0.014031  -0.006959
   35  C  8  Y    0.000644   0.018891   0.031566  -0.004471   0.002483
   36  C  8  Z    0.002021  -0.003187  -0.049653   0.043997  -0.010333
   37  C  9  S   -0.001224  -0.052084  -0.148462   0.067265   0.015289
   38  C  9  S    0.002924   0.131530   0.388242  -0.180392  -0.044462
[...]
 19   H            X  0.10361138 -0.17473694  0.12409783 -0.00625107 -0.00320738
                   Y  0.18577317 -0.26672000  0.18167398 -0.01143456 -0.00574315
                   Z -0.22726752  0.26995666 -0.17768393 -0.00705247 -0.00443553
 20   H            X -0.25565086  0.36454841 -0.20501543  0.00409019  0.00115915
                   Y  0.15370757 -0.26733235  0.07108670 -0.00233063 -0.00145154
                   Z -0.11937801  0.09422720 -0.03810816 -0.00525276 -0.00423861

 TRANS. SAYVETZ    X -0.00000070  0.00000008  0.00000095 -0.00000122 -0.00000049
                   Y  0.00000261 -0.00000151  0.00000181  0.00000103  0.00000698
                   Z -0.00000179 -0.00000011 -0.00000153 -0.00000038 -0.00000161
               TOTAL  0.00000324  0.00000151  0.00000255  0.00000164  0.00000718

   ROT. SAYVETZ    X  0.01014219  0.00350864 -0.03291182  0.00505384  0.00409289
                   Y -0.00694434  0.01132297  0.01029907 -0.00027358  0.00100651
                   Z  0.00151570 -0.00621817  0.00050887 -0.00072135 -0.00114588
               TOTAL  0.01238488  0.01338603  0.03448939  0.00511239  0.00436782

                           51          52          53          54          55
       FREQUENCY:      3631.38     3635.52     3691.47     3697.73     3706.36  
        SYMMETRY:         A           A           A           A           A   
    REDUCED MASS:      1.06289     1.06487     1.09127     1.09378     1.09165
    IR INTENSITY:      0.13104     0.09178     0.20366     0.11157     0.48908

  1   C            X  0.00005812 -0.00009749 -0.00578614  0.01619681  0.04271531
                   Y  0.00041156  0.00005386 -0.00745730  0.01922512  0.04135066
                   Z -0.00001569 -0.00011786  0.00383706 -0.00964165 -0.02023088
  2   C            X -0.00259870 -0.00014256  0.03293766 -0.00616424  0.01140421
                   Y  0.00085287 -0.00049954 -0.00988550  0.00685257 -0.00597517
                   Z  0.00017658  0.00027016 -0.00261211 -0.00176540 -0.00006259
  3   C            X  0.00101538  0.00021724 -0.00822552  0.01141041 -0.00805260
                   Y -0.00219746 -0.00017989  0.03495215 -0.05996657  0.02722381
                   Z  0.00054445 -0.00088094 -0.00880137  0.01511802 -0.00683186
  4   C            X -0.00013628  0.00002253  0.00154672  0.00205069  0.00133591
                   Y  0.00020788  0.00003760 -0.00006805  0.00011089  0.00066599
                   Z  0.00013296  0.00008615  0.00015076 -0.00000818 -0.00026606
  5   O            X  0.00001141 -0.00000226 -0.00009857 -0.00024958 -0.00018662
                   Y -0.00005304 -0.00000565  0.00000257  0.00007371 -0.00001019
                   Z -0.00001244 -0.00001078  0.00000505 -0.00002592 -0.00001047
  6   C            X -0.00038945  0.00006673  0.00448273 -0.01462051 -0.04250535
                   Y -0.00001517 -0.00005620 -0.00028858  0.00160276  0.00597212
                   Z -0.00008131 -0.00001056  0.00060883 -0.00208459 -0.00664907
  7   H            X  0.00446953 -0.00096873 -0.04764898  0.16895708  0.48976116
                   Y -0.00098500  0.00017725  0.00990250 -0.03412445 -0.09902753
                   Z  0.00075725 -0.00016615 -0.00882207  0.03201538  0.09414087
  8   C            X -0.03407121 -0.03435711 -0.00211575  0.00146867 -0.00086149
                   Y -0.03324061 -0.03356328 -0.00189410  0.00070595 -0.00035137
                   Z  0.00954575  0.00861822  0.00063849 -0.00092751  0.00047947
  9   C            X -0.00647666  0.00205532  0.00460983 -0.00144663  0.00239246
                   Y  0.00171593  0.00661118 -0.00198818  0.00020336 -0.00082183
                   Z -0.00050341 -0.00348537 -0.00095312  0.00046585 -0.00051865
 10   C            X -0.01333288  0.01395614 -0.00110843 -0.00025859 -0.00013039
                   Y  0.03676462 -0.03723575  0.00287724  0.00036288  0.00004225
                   Z -0.02757761  0.02913209 -0.00153188  0.00033823 -0.00031329
 11   C            X  0.00205266 -0.00005540 -0.04309696 -0.02962169  0.00682983
                   Y  0.00109602  0.00067723 -0.03420738 -0.02529620  0.00651296
                   Z -0.00110787  0.00066530  0.03463378  0.02516615 -0.00615265
 12   H            X -0.01809132  0.00489478  0.48411375  0.34044639 -0.08058974
                   Y -0.01369716  0.00325969  0.38070232  0.26932277 -0.06347833
                   Z  0.01558583 -0.00515363 -0.40341620 -0.28404952  0.06675985
 13   H            X -0.00349949 -0.00018075  0.07752029 -0.20447036 -0.47510461
                   Y -0.00342424 -0.00021882  0.07843805 -0.20724806 -0.47683007
                   Z  0.00168705  0.00003917 -0.03924003  0.10268185  0.23391434
 14   H            X  0.03227719  0.00000320 -0.38500887  0.08544233 -0.13830141
                   Y -0.01114116  0.00023321  0.13392485 -0.03136325  0.04976265
                   Z -0.00230414 -0.00011293  0.02919179 -0.00544875  0.01050453
 15   H            X -0.00566815 -0.00132782  0.08555148 -0.14248788  0.06738808
                   Y  0.02652828  0.00726051 -0.40227846  0.67658859 -0.30881120
                   Z -0.00527929 -0.00038192  0.09334275 -0.15805085  0.07220110
 16   H            X  0.47740194  0.47765052  0.02910064 -0.01500807  0.00786417
                   Y -0.09164774 -0.09022240 -0.00521338  0.00323214 -0.00166485
                   Z  0.01527776  0.01701352  0.00028277 -0.00006346 -0.00007502
 17   H            X -0.10919442 -0.10908341 -0.00551004  0.00188623 -0.00078813
                   Y  0.45461953  0.45171618  0.02390622 -0.00564165  0.00350875
                   Z -0.09549269 -0.09505388 -0.00613821  0.00248795 -0.00117947
 18   H            X  0.11596606 -0.00085474 -0.05081582  0.01497863 -0.02613195
                   Y -0.04427703  0.00282295  0.01945051 -0.00564633  0.01002999
                   Z -0.02022892 -0.00106772  0.00893497 -0.00263411  0.00462114
 19   H            X  0.45343573 -0.46377297  0.03094905  0.00070903  0.00342386
                   Y -0.14610119  0.14887356 -0.01079705  0.00005942 -0.00085793
                   Z  0.03985909 -0.04296914  0.00233370  0.00005589  0.00115238
 20   H            X -0.30574994  0.31198136 -0.01717815  0.00337378 -0.00087135
                   Y -0.23565927  0.24006834 -0.01423185  0.00280591 -0.00094988
                   Z  0.27520959 -0.28010896  0.01422457 -0.00403032  0.00089606

 TRANS. SAYVETZ    X -0.00000028 -0.00000119 -0.00000026  0.00000050 -0.00000004
                   Y -0.00000037  0.00000061  0.00000147  0.00000006  0.00000060
                   Z  0.00000007  0.00000003 -0.00000027 -0.00000032  0.00000029
               TOTAL  0.00000047  0.00000134  0.00000151  0.00000060  0.00000067

   ROT. SAYVETZ    X  0.00048068 -0.00260959  0.00028104  0.00300908 -0.00115407
                   Y  0.00134210  0.00073016 -0.00141808 -0.00068204  0.00003653
                   Z -0.00075415  0.00007154  0.00066773 -0.00016542  0.00017343
               TOTAL  0.00161277  0.00271075  0.00159242  0.00308984  0.00116760

                           56          57          58          59          60
       FREQUENCY:      3718.46     3722.86     3736.31     3782.79     3784.31  
        SYMMETRY:         A           A           A           A           A   
    REDUCED MASS:      1.09806     1.09987     1.10614     1.11775     1.11828
    IR INTENSITY:      0.24027     0.05621     0.04481     0.02118     0.01932

  1   C            X  0.00079378 -0.00018494 -0.02872808 -0.00006164  0.00003983
                   Y -0.00028808 -0.00270139 -0.03872099  0.00002448 -0.00002389
                   Z  0.00017564  0.00142880  0.01949369  0.00011109 -0.00008400
  2   C            X -0.02343307 -0.06739207  0.00788085  0.00004845 -0.00065183
                   Y  0.00818386  0.02450920 -0.00279198 -0.00002966  0.00031373
                   Z  0.00208518  0.00726296 -0.00083623 -0.00001193  0.00019490
  3   C            X -0.00163635 -0.00211316  0.00287385  0.00031588 -0.00043799
                   Y  0.01505362  0.02658159 -0.00713200  0.00055017  0.00015643
                   Z -0.00505071 -0.00836563  0.00226726 -0.00018798  0.00009155
  4   C            X  0.00048521  0.00099585  0.00144313  0.00005536  0.00001594
                   Y -0.00003811 -0.00019507  0.00162282 -0.00004142 -0.00006244
                   Z  0.00005578  0.00007741 -0.00078422 -0.00008945 -0.00008976
  5   O            X -0.00006983 -0.00010804 -0.00008032 -0.00001942 -0.00001449
                   Y  0.00004791  0.00009352 -0.00030627  0.00001526  0.00002480
                   Z -0.00002893 -0.00004020  0.00015225 -0.00000303 -0.00000397
  6   C            X -0.00408392 -0.00996298 -0.06738425  0.00016859 -0.00008964
                   Y  0.00097188  0.00278240  0.02035287 -0.00004647  0.00003681
                   Z -0.00097097 -0.00228165 -0.01649643  0.00007545  0.00000068
  7   H            X  0.04698296  0.11411129  0.74232752 -0.00184077  0.00091128
                   Y -0.00966070 -0.02337020 -0.15215385  0.00023737 -0.00015534
                   Z  0.00896868  0.02195727  0.14378641 -0.00047769  0.00020606
  8   C            X  0.01075767 -0.00382163  0.00015235  0.04547195  0.04916822
                   Y  0.00194141  0.00021709 -0.00003970 -0.04368791 -0.04847390
                   Z -0.00273223  0.00018792  0.00004507  0.00928767  0.01054135
  9   C            X -0.07174549  0.02749303 -0.00058169  0.00004873  0.00667368
                   Y  0.02843117 -0.01114565  0.00027458  0.00086110 -0.00267736
                   Z  0.01444283 -0.00598815  0.00018240 -0.00038953 -0.00166848
 10   C            X  0.00780800 -0.00330758  0.00009029 -0.06621486  0.06010747
                   Y -0.00775305  0.00168437 -0.00009328 -0.00854660  0.00851903
                   Z  0.00241981 -0.00054853  0.00011192  0.02061817 -0.01914194
 11   C            X -0.00722651 -0.01302452  0.00222003  0.00002793 -0.00040621
                   Y -0.00831453 -0.01543440  0.00229222  0.00047156  0.00020361
                   Z  0.00646494  0.01271480 -0.00186295 -0.00037764  0.00000384
 12   H            X  0.08621505  0.16047274 -0.02289941 -0.00369832  0.00054813
                   Y  0.06962156  0.12858863 -0.01838970 -0.00262435  0.00082633
                   Z -0.07108977 -0.13382531  0.01921962  0.00264001 -0.00096329
 13   H            X -0.00336146  0.01590057  0.35444921  0.00047998 -0.00037793
                   Y -0.00256279  0.01729391  0.35895135  0.00034334 -0.00030938
                   Z  0.00104075 -0.00875710 -0.17620145 -0.00024957  0.00015460
 14   H            X  0.25379791  0.74452620 -0.08316358 -0.00055556  0.00633771
                   Y -0.08882942 -0.26124327  0.02948915  0.00012795 -0.00218778
                   Z -0.01972483 -0.05876607  0.00669720  0.00007943 -0.00043289
 15   H            X  0.03307182  0.05728652 -0.01725054  0.00138026  0.00004165
                   Y -0.15889730 -0.27705046  0.07609975 -0.00500576 -0.00200492
                   Z  0.03898756  0.06617890 -0.01839712  0.00135823  0.00035302
 16   H            X -0.09300535  0.03310134 -0.00192128 -0.43521518 -0.47064693
                   Y  0.01933460 -0.00649632  0.00027424  0.08057951  0.08671523
                   Z -0.00505023  0.00261516 -0.00020544 -0.01671104 -0.01726516
 17   H            X  0.00264646  0.00150570 -0.00012756 -0.10081487 -0.11180911
                   Y -0.01302913 -0.00443429  0.00052087  0.43306363  0.47687587
                   Z  0.00526603  0.00100245 -0.00009428 -0.09058633 -0.09993074
 18   H            X  0.80554477 -0.31098810  0.00682448  0.00117987 -0.08105170
                   Y -0.30851256  0.11919693 -0.00259157 -0.00481416  0.03144042
                   Z -0.14248879  0.05522001 -0.00115341  0.00160480  0.01549090
 19   H            X -0.09065500  0.03204245 -0.00101488  0.46263980 -0.41581064
                   Y  0.02646190 -0.00884692  0.00047559 -0.14918417  0.13495269
                   Z -0.00845440  0.00386388 -0.00005375  0.04577898 -0.04100373
 20   H            X  0.01101365  0.00292782  0.00080993  0.31655171 -0.29028555
                   Y  0.01061267  0.00174987  0.00075254  0.24767154 -0.22636477
                   Z -0.00810551 -0.00228822 -0.00126221 -0.28911379  0.26433067

 TRANS. SAYVETZ    X -0.00000027  0.00000047  0.00000017 -0.00000007 -0.00000005
                   Y -0.00000064 -0.00000030  0.00000041  0.00000009  0.00000013
                   Z -0.00000019  0.00000011  0.00000019  0.00000001 -0.00000000
               TOTAL  0.00000073  0.00000057  0.00000049  0.00000011  0.00000014

   ROT. SAYVETZ    X -0.00036798 -0.00024606  0.00014418 -0.00178419 -0.00089645
                   Y -0.00075475 -0.00022250  0.00013086  0.00083244 -0.00301928
                   Z  0.00043486  0.00016254 -0.00008943 -0.00007725  0.00156911
               TOTAL  0.00094560  0.00036942  0.00021427  0.00197034  0.00351878

 REFERENCE ON SAYVETZ CONDITIONS - A. SAYVETZ, J.CHEM.PHYS., 7, 383-389(1939).

 NOTE - THE MODES J,K ARE ORTHONORMALIZED ACCORDING TO
 SUM ON I   M(I) * (X(I,J)*X(I,K) + Y(I,J)*Y(I,K) + Z(I,J)*Z(I,K)) = DELTA(J,K)

  MODE FREQ(CM**-1)  SYMMETRY  RED. MASS  IR INTENS.
     1    1057.093    A       10.095320    0.011754
     2       0.165    A        6.535933    0.000247
     3       0.010    A        6.704084    0.000000
     4       0.005    A        6.703001    0.000000
     5       1.359    A        4.757469    0.016993
     6      44.880    A        6.105798    0.021692
     7      56.044    A        4.130474    0.000107
     8     120.108    A        5.153107    0.033802
     9     224.425    A        3.224729    0.028252
    10     252.864    A        3.706027    0.025485
    11     380.181    A        4.915305    0.005449
    12     384.726    A        6.879676    0.153921
    13     469.647    A        3.034196    0.050406
    14     485.683    A        2.215309    0.008905
    15     498.068    A        4.576856    0.165719
    16     570.180    A        2.513868    0.078154
    17     604.378    A        2.414893    0.125694
    18     617.533    A        5.301789    0.023239
    19     682.033    A        6.090311    0.012603
    20     831.514    A        3.831241    0.099844
    21     853.846    A        3.364374    0.167883
    22     920.633    A        1.493857    0.513897
    23     934.941    A        1.809677    0.583512
    24     963.807    A        1.471043    1.269044
    25     977.851    A        1.458320    0.233510
    26    1032.628    A        1.228742    0.137103
    27    1088.184    A        1.825996    0.105988
    28    1106.681    A        3.506466    0.006834
    29    1162.499    A        1.673131    0.018179
    30    1183.347    A        1.080309    0.015763
    31    1208.619    A        1.265889    0.010225
    32    1221.925    A        1.463932    0.249032
    33    1231.105    A        1.220688    0.122856
    34    1246.096    A        1.330391    0.029253
    35    1312.670    A        1.226741    0.022169
    36    1337.354    A        1.210442    0.119395
    37    1354.944    A        1.134785    0.029795
    38    1364.117    A        1.277315    0.152375
    39    1423.675    A        1.848419    0.645627
    40    1459.521    A        1.355931    0.121727
    41    1483.592    A        1.918035    0.018668
    42    1601.364    A        1.628804    0.190540
    43    1642.478    A        1.723891    0.107101
    44    1666.257    A        1.559918    0.039534
    45    1735.736    A        2.729925    0.199546
    46    1761.737    A        1.801074    0.049450
    47    1814.311    A        1.273790    0.221174
    48    1867.717    A        2.724449    0.059634
    49    2004.631    A        7.038184    0.056089
    50    2073.377    A       10.418008    1.825609
    51    3631.380    A        1.062886    0.131038
    52    3635.518    A        1.064869    0.091780
    53    3691.469    A        1.091270    0.203663
    54    3697.731    A        1.093785    0.111572
    55    3706.359    A        1.091653    0.489075
    56    3718.459    A        1.098063    0.240265
    57    3722.861    A        1.099866    0.056211
    58    3736.312    A        1.106144    0.044805
    59    3782.789    A        1.117752    0.021175
    60    3784.315    A        1.118281    0.019322

     -------------------------------
     THERMOCHEMISTRY AT T=  298.15 K
     -------------------------------

 USING IDEAL GAS, RIGID ROTOR, HARMONIC NORMAL MODE APPROXIMATIONS.
 P=  1.01325E+05 PASCAL.
 ALL FREQUENCIES ARE SCALED BY   1.00000
 THE MOMENTS OF INERTIA ARE (IN AMU*BOHR**2)
            891.69988          1271.00499          1538.51730
 THE ROTATIONAL SYMMETRY NUMBER IS  1.0
 THE ROTATIONAL CONSTANTS ARE (IN GHZ)
      2.02208     1.41863     1.17196
   1 IMAGINARY FREQUENCY VIBRATION(S) IS(ARE) EXCLUDED
     FROM THE FOLLOWING THERMOCHEMICAL ANALYSIS.
      8 -     60 VIBRATIONAL MODES ARE USED IN THERMOCHEMISTRY.
 THE HARMONIC ZERO POINT ENERGY IS (SCALED BY   1.000)
        0.191968 HARTREE/MOLECULE    42132.087394 CM**-1/MOLECULE 
      120.461804 KCAL/MOL              504.012186 KJ/MOL

               Q               LN Q
 ELEC.     1.00000E+00       0.000000
 TRANS.    6.10192E+07      17.926699
 ROT.      4.72689E+05      13.066193
 VIB.      1.30203E+01       2.566506
 TOT.      3.75545E+14      33.559399

              E         H         G         CV        CP        S
           KJ/MOL    KJ/MOL    KJ/MOL   J/MOL-K   J/MOL-K   J/MOL-K
 ELEC.      0.000     0.000     0.000     0.000     0.000     0.000
 TRANS.     3.718     6.197   -44.439    12.472    20.786   169.836
 ROT.       3.718     3.718   -32.390    12.472    12.472   121.109
 VIB.     515.130   515.130   497.650    93.733    93.733    58.629
 TOTAL    522.567   525.046   420.820   118.677   126.991   349.574
 VIB. THERMAL CORRECTION E(T)-E(0) = H(T)-H(0) =     11118.101 J/MOL

              E         H         G         CV        CP        S
         KCAL/MOL  KCAL/MOL  KCAL/MOL CAL/MOL-K CAL/MOL-K CAL/MOL-K
 ELEC.      0.000     0.000     0.000     0.000     0.000     0.000
 TRANS.     0.889     1.481   -10.621     2.981     4.968    40.592
 ROT.       0.889     0.889    -7.741     2.981     2.981    28.946
 VIB.     123.119   123.119   118.941    22.403    22.403    14.013
 TOTAL    124.897   125.489   100.578    28.364    30.352    83.550
 VIB. THERMAL CORRECTION E(T)-E(0) = H(T)-H(0) =      2657.290 CAL/MOL

     *******************************************************
     * THIS IS NOT A STATIONARY POINT ON THE MOLECULAR PES *
     *     THE VIBRATIONAL ANALYSIS IS NOT VALID !!!       *
     *******************************************************
 ......END OF NORMAL COORDINATE ANALYSIS......
 STEP CPU TIME =     0.02 TOTAL CPU TIME =        147.3 (      2.5 MIN)
 TOTAL WALL CLOCK TIME=        147.7 SECONDS, CPU UTILIZATION IS    99.69%
               580000  WORDS OF DYNAMIC MEMORY USED
 EXECUTION OF GAMESS TERMINATED NORMALLY Sat Nov 13 20:16:30 2021
 DDI: 263640 bytes (0.3 MB / 0 MWords) used by master data server.

 ----------------------------------------
 CPU timing information for all processes
 ========================================
 0: 144.946 + 2.354 = 147.301
 ----------------------------------------
 ddikick.x: exited gracefully.
----- accounting info -----
Files used on the master node chemcompute-node-0.novalocal were:
-rw-r--r--. 1 chemcomp chemcomp     1350 Nov 13 20:14 /scratch/306145/342047.F05
-rw-rw-r--. 1 chemcomp chemcomp 18181616 Nov 13 20:15 /scratch/306145/342047.F08
-rw-rw-r--. 1 chemcomp chemcomp 85196800 Nov 13 20:16 /scratch/306145/342047.F10
-rw-rw-r--. 1 chemcomp chemcomp   878880 Nov 13 20:16 /scratch/306145/342047.F18
Sat Nov 13 20:16:33 UTC 2021
0.147u 0.107s 2:31.71 0.1%	0+0k 8+216io 0pf+0w
Finishing Up...
Looking for IR data...
Looking for Raman data...
vibramans not found
Looking for thermodynamics data...
Looking for UV-Vis data...
306145
